# vtk DataFile Version 2.0
Unstructured Grid Example
ASCII
DATASET UNSTRUCTURED_GRID

POINTS 961 float
0.150000006 -0.00839745998 0
0.146666661 -0.00839745998 0
0.143333331 -0.00839745998 0
0.140000001 -0.00839745998 0
0.13666667 -0.00839745998 0
0.13333334 -0.00839745998 0
0.129999995 -0.00839745998 0
0.126666665 -0.00839745998 0
0.123333335 -0.00839745998 0
0.119999997 -0.00839745998 0
0.116666667 -0.00839745998 0
0.113333337 -0.00839745998 0
0.109999999 -0.00839745998 0
0.106666669 -0.00839745998 0
0.103333332 -0.00839745998 0
0.100000001 -0.00839745998 0
0.0966666639 -0.00839745998 0
0.0933333337 -0.00839745998 0
0.0900000036 -0.00839745998 0
0.086666666 -0.00839745998 0
0.0833333358 -0.00839745998 0
0.0799999982 -0.00839745998 0
0.0766666681 -0.00839745998 0
0.0733333305 -0.00839745998 0
0.0700000003 -0.00839745998 0
0.0666666701 -0.00839745998 0
0.0633333325 -0.00839745998 0
0.0599999987 -0.00839745998 0
0.0566666685 -0.00839745998 0
0.0533333346 -0.00839745998 0
0.0500000007 -0.00839745998 0
0.148333326 -0.0112842107 0
0.144999996 -0.0112842107 0
0.141666666 -0.0112842107 0
0.138333336 -0.0112842107 0
0.135000005 -0.0112842107 0
0.13166666 -0.0112842107 0
0.12833333 -0.0112842107 0
0.125 -0.0112842107 0
0.12166667 -0.0112842107 0
0.118333332 -0.0112842107 0
0.115000002 -0.0112842107 0
0.111666664 -0.0112842107 0
0.108333334 -0.0112842107 0
0.104999997 -0.0112842107 0
0.101666667 -0.0112842107 0
0.0983333364 -0.0112842107 0
0.0949999988 -0.0112842107 0
0.0916666687 -0.0112842107 0
0.088333331 -0.0112842107 0
0.0850000009 -0.0112842107 0
0.0816666633 -0.0112842107 0
0.0783333331 -0.0112842107 0
0.075000003 -0.0112842107 0
0.0716666654 -0.0112842107 0
0.0683333352 -0.0112842107 0
0.0649999976 -0.0112842107 0
0.0616666675 -0.0112842107 0
0.0583333336 -0.0112842107 0
0.0549999997 -0.0112842107 0
0.0516666658 -0.0112842107 0
0.0483333319 -0.0112842107 0
0.146666661 -0.0141709624 0
0.143333331 -0.0141709624 0
0.140000001 -0.0141709624 0
0.13666667 -0.0141709624 0
0.13333334 -0.0141709624 0
0.129999995 -0.0141709624 0
0.126666665 -0.0141709624 0
0.123333335 -0.0141709624 0
0.119999997 -0.0141709624 0
0.116666667 -0.0141709624 0
0.113333337 -0.0141709624 0
0.109999999 -0.0141709624 0
0.106666669 -0.0141709624 0
0.103333332 -0.0141709624 0
0.100000001 -0.0141709624 0
0.0966666639 -0.0141709624 0
0.0933333337 -0.0141709624 0
0.0900000036 -0.0141709624 0
0.086666666 -0.0141709624 0
0.0833333358 -0.0141709624 0
0.0799999982 -0.0141709624 0
0.0766666681 -0.0141709624 0
0.0733333305 -0.0141709624 0
0.0700000003 -0.0141709624 0
0.0666666701 -0.0141709624 0
0.0633333325 -0.0141709624 0
0.0599999987 -0.0141709624 0
0.0566666685 -0.0141709624 0
0.0533333346 -0.0141709624 0
0.0500000007 -0.0141709624 0
0.0466666669 -0.0141709624 0
0.144999996 -0.0170577131 0
0.141666666 -0.0170577131 0
0.138333336 -0.0170577131 0
0.135000005 -0.0170577131 0
0.13166666 -0.0170577131 0
0.12833333 -0.0170577131 0
0.125 -0.0170577131 0
0.12166667 -0.0170577131 0
0.118333332 -0.0170577131 0
0.115000002 -0.0170577131 0
0.111666664 -0.0170577131 0
0.108333334 -0.0170577131 0
0.104999997 -0.0170577131 0
0.101666667 -0.0170577131 0
0.0983333364 -0.0170577131 0
0.0949999988 -0.0170577131 0
0.0916666687 -0.0170577131 0
0.088333331 -0.0170577131 0
0.0850000009 -0.0170577131 0
0.0816666633 -0.0170577131 0
0.0783333331 -0.0170577131 0
0.075000003 -0.0170577131 0
0.0716666654 -0.0170577131 0
0.0683333352 -0.0170577131 0
0.0649999976 -0.0170577131 0
0.0616666675 -0.0170577131 0
0.0583333336 -0.0170577131 0
0.0549999997 -0.0170577131 0
0.0516666658 -0.0170577131 0
0.0483333319 -0.0170577131 0
0.0450000018 -0.0170577131 0
0.143333331 -0.0199444648 0
0.140000001 -0.0199444648 0
0.13666667 -0.0199444648 0
0.13333334 -0.0199444648 0
0.129999995 -0.0199444648 0
0.126666665 -0.0199444648 0
0.123333335 -0.0199444648 0
0.119999997 -0.0199444648 0
0.116666667 -0.0199444648 0
0.113333337 -0.0199444648 0
0.109999999 -0.0199444648 0
0.106666669 -0.0199444648 0
0.103333332 -0.0199444648 0
0.100000001 -0.0199444648 0
0.0966666639 -0.0199444648 0
0.0933333337 -0.0199444648 0
0.0900000036 -0.0199444648 0
0.086666666 -0.0199444648 0
0.0833333358 -0.0199444648 0
0.0799999982 -0.0199444648 0
0.0766666681 -0.0199444648 0
0.0733333305 -0.0199444648 0
0.0700000003 -0.0199444648 0
0.0666666701 -0.0199444648 0
0.0633333325 -0.0199444648 0
0.0599999987 -0.0199444648 0
0.0566666685 -0.0199444648 0
0.0533333346 -0.0199444648 0
0.0500000007 -0.0199444648 0
0.0466666669 -0.0199444648 0
0.043333333 -0.0199444648 0
0.141666666 -0.0228312165 0
0.138333336 -0.0228312165 0
0.135000005 -0.0228312165 0
0.13166666 -0.0228312165 0
0.12833333 -0.0228312165 0
0.125 -0.0228312165 0
0.12166667 -0.0228312165 0
0.118333332 -0.0228312165 0
0.115000002 -0.0228312165 0
0.111666664 -0.0228312165 0
0.108333334 -0.0228312165 0
0.104999997 -0.0228312165 0
0.101666667 -0.0228312165 0
0.0983333364 -0.0228312165 0
0.0949999988 -0.0228312165 0
0.0916666687 -0.0228312165 0
0.088333331 -0.0228312165 0
0.0850000009 -0.0228312165 0
0.0816666633 -0.0228312165 0
0.0783333331 -0.0228312165 0
0.075000003 -0.0228312165 0
0.0716666654 -0.0228312165 0
0.0683333352 -0.0228312165 0
0.0649999976 -0.0228312165 0
0.0616666675 -0.0228312165 0
0.0583333336 -0.0228312165 0
0.0549999997 -0.0228312165 0
0.0516666658 -0.0228312165 0
0.0483333319 -0.0228312165 0
0.0450000018 -0.0228312165 0
0.0416666679 -0.0228312165 0
0.140000001 -0.0257179681 0
0.13666667 -0.0257179681 0
0.13333334 -0.0257179681 0
0.129999995 -0.0257179681 0
0.126666665 -0.0257179681 0
0.123333335 -0.0257179681 0
0.119999997 -0.0257179681 0
0.116666667 -0.0257179681 0
0.113333337 -0.0257179681 0
0.109999999 -0.0257179681 0
0.106666669 -0.0257179681 0
0.103333332 -0.0257179681 0
0.100000001 -0.0257179681 0
0.0966666639 -0.0257179681 0
0.0933333337 -0.0257179681 0
0.0900000036 -0.0257179681 0
0.086666666 -0.0257179681 0
0.0833333358 -0.0257179681 0
0.0799999982 -0.0257179681 0
0.0766666681 -0.0257179681 0
0.0733333305 -0.0257179681 0
0.0700000003 -0.0257179681 0
0.0666666701 -0.0257179681 0
0.0633333325 -0.0257179681 0
0.0599999987 -0.0257179681 0
0.0566666685 -0.0257179681 0
0.0533333346 -0.0257179681 0
0.0500000007 -0.0257179681 0
0.0466666669 -0.0257179681 0
0.043333333 -0.0257179681 0
0.0399999991 -0.0257179681 0
0.138333336 -0.0286047198 0
0.135000005 -0.0286047198 0
0.13166666 -0.0286047198 0
0.12833333 -0.0286047198 0
0.125 -0.0286047198 0
0.12166667 -0.0286047198 0
0.118333332 -0.0286047198 0
0.115000002 -0.0286047198 0
0.111666664 -0.0286047198 0
0.108333334 -0.0286047198 0
0.104999997 -0.0286047198 0
0.101666667 -0.0286047198 0
0.0983333364 -0.0286047198 0
0.0949999988 -0.0286047198 0
0.0916666687 -0.0286047198 0
0.088333331 -0.0286047198 0
0.0850000009 -0.0286047198 0
0.0816666633 -0.0286047198 0
0.0783333331 -0.0286047198 0
0.075000003 -0.0286047198 0
0.0716666654 -0.0286047198 0
0.0683333352 -0.0286047198 0
0.0649999976 -0.0286047198 0
0.0616666675 -0.0286047198 0
0.0583333336 -0.0286047198 0
0.0549999997 -0.0286047198 0
0.0516666658 -0.0286047198 0
0.0483333319 -0.0286047198 0
0.0450000018 -0.0286047198 0
0.0416666679 -0.0286047198 0
0.038333334 -0.0286047198 0
0.13666667 -0.0314914696 0
0.13333334 -0.0314914696 0
0.129999995 -0.0314914696 0
0.126666665 -0.0314914696 0
0.123333335 -0.0314914696 0
0.119999997 -0.0314914696 0
0.116666667 -0.0314914696 0
0.113333337 -0.0314914696 0
0.109999999 -0.0314914696 0
0.106666669 -0.0314914696 0
0.103333332 -0.0314914696 0
0.100000001 -0.0314914696 0
0.0966666639 -0.0314914696 0
0.0933333337 -0.0314914696 0
0.0900000036 -0.0314914696 0
0.086666666 -0.0314914696 0
0.0833333358 -0.0314914696 0
0.0799999982 -0.0314914696 0
0.0766666681 -0.0314914696 0
0.0733333305 -0.0314914696 0
0.0700000003 -0.0314914696 0
0.0666666701 -0.0314914696 0
0.0633333325 -0.0314914696 0
0.0599999987 -0.0314914696 0
0.0566666685 -0.0314914696 0
0.0533333346 -0.0314914696 0
0.0500000007 -0.0314914696 0
0.0466666669 -0.0314914696 0
0.043333333 -0.0314914696 0
0.0399999991 -0.0314914696 0
0.0366666652 -0.0314914696 0
0.135000005 -0.0343782231 0
0.13166666 -0.0343782231 0
0.12833333 -0.0343782231 0
0.125 -0.0343782231 0
0.12166667 -0.0343782231 0
0.118333332 -0.0343782231 0
0.115000002 -0.0343782231 0
0.111666664 -0.0343782231 0
0.108333334 -0.0343782231 0
0.104999997 -0.0343782231 0
0.101666667 -0.0343782231 0
0.0983333364 -0.0343782231 0
0.0949999988 -0.0343782231 0
0.0916666687 -0.0343782231 0
0.088333331 -0.0343782231 0
0.0850000009 -0.0343782231 0
0.0816666633 -0.0343782231 0
0.0783333331 -0.0343782231 0
0.075000003 -0.0343782231 0
0.0716666654 -0.0343782231 0
0.0683333352 -0.0343782231 0
0.0649999976 -0.0343782231 0
0.0616666675 -0.0343782231 0
0.0583333336 -0.0343782231 0
0.0549999997 -0.0343782231 0
0.0516666658 -0.0343782231 0
0.0483333319 -0.0343782231 0
0.0450000018 -0.0343782231 0
0.0416666679 -0.0343782231 0
0.038333334 -0.0343782231 0
0.0350000001 -0.0343782231 0
0.13333334 -0.0372649729 0
0.129999995 -0.0372649729 0
0.126666665 -0.0372649729 0
0.123333335 -0.0372649729 0
0.119999997 -0.0372649729 0
0.116666667 -0.0372649729 0
0.113333337 -0.0372649729 0
0.109999999 -0.0372649729 0
0.106666669 -0.0372649729 0
0.103333332 -0.0372649729 0
0.100000001 -0.0372649729 0
0.0966666639 -0.0372649729 0
0.0933333337 -0.0372649729 0
0.0900000036 -0.0372649729 0
0.086666666 -0.0372649729 0
0.0833333358 -0.0372649729 0
0.0799999982 -0.0372649729 0
0.0766666681 -0.0372649729 0
0.0733333305 -0.0372649729 0
0.0700000003 -0.0372649729 0
0.0666666701 -0.0372649729 0
0.0633333325 -0.0372649729 0
0.0599999987 -0.0372649729 0
0.0566666685 -0.0372649729 0
0.0533333346 -0.0372649729 0
0.0500000007 -0.0372649729 0
0.0466666669 -0.0372649729 0
0.043333333 -0.0372649729 0
0.0399999991 -0.0372649729 0
0.0366666652 -0.0372649729 0
0.0333333351 -0.0372649729 0
0.13166666 -0.0401517227 0
0.12833333 -0.0401517227 0
0.125 -0.0401517227 0
0.12166667 -0.0401517227 0
0.118333332 -0.0401517227 0
0.115000002 -0.0401517227 0
0.111666664 -0.0401517227 0
[...]
POINT_DATA 961
SCALARS Temp float 1
LOOKUP_TABLE default
380.77102075651584
331.45601424196593
291.50330324139514
261.4801783508097
240.18309982698207
225.89920310580297
216.82683348215087
211.35922071363876
208.22500464396472
206.5114824323681
205.61544211530534
205.16595941478099
204.94904065178187
204.84805521430846
204.80259731466083
204.78280426954785
204.774592790714
204.77179628348892
204.77250975974866
204.7782074790955
204.79558854243928
204.8425211273576
204.9612929492141
205.244185877098
205.87681870202243
207.20130420134228
209.79087819359353
214.51110256032615
222.52880699344374
235.23940946526125
254.39454730400232
331.4560297891675
284.38375846771123
248.05940234451123
221.4594600680111
203.03591536280496
190.9550538064278
183.4437991032131
179.00649471036013
176.5096650380732
175.16780427971622
174.47707301141847
174.1355338631786
173.97286591414687
173.89804674077422
173.86475345533808
173.8504698895958
173.8448114328974
173.84357956383843
173.8463479423915
173.85676959023132
173.88617421409847
173.96269211932204
174.15004483802264
174.5815249725493
175.51367029775002
177.39758873341208
180.9520053095015
187.20444862303125
197.4570612686977
213.15549131271268
235.23942875377764
291.50325984246086
248.05938366878445
215.08034773066865
191.31722412159974
175.0772432418664
164.5463428404999
158.05844742993938
154.25371343177244
152.12501297306426
150.98590058131182
150.40134350778175
150.11290838794517
149.9757129201228
149.91266097720342
149.8846405779907
149.87271611501984
149.86830522815362
149.86834603325352
149.87375789601862
149.89087966116224
149.9370317795698
150.05315722003
150.32825945187923
150.9409351991393
152.22031261017977
154.7192976690922
159.27696949901065
167.02991509696383
179.32502719688216
197.45705175337517
222.52881608095134
261.480127496545
221.45943518981295
191.31722667585973
169.72686689401687
155.02762973092652
145.5134106543845
139.65319973439696
136.2130487058672
134.2845658267746
133.24990843172372
132.7173510484043
132.4537260664521
132.32791979731886
132.26992577730408
132.24411796764167
132.23324608923974
132.2296524472299
132.23112295915337
132.24007334486325
132.26613546346914
132.33380551905225
132.49858123537356
132.8764022464363
133.69072515927155
135.33663741845803
138.4500377152379
143.953612090417
153.03720941088145
167.0299293769297
187.20446137197888
214.51109418460135
240.18305744352085
203.03589527846924
175.07723379059667
155.02768338622323
141.34216220149324
132.4524103728192
126.954011949783
123.71194048212381
121.88640835972365
120.90276382265102
120.39441189610564
120.14183033535758
120.02089084771292
119.96499108288296
119.9401114552328
119.92980309006919
119.9269773092052
119.9302337500977
119.9437090086792
119.98082377274294
120.07393686692996
120.29352835299376
120.78138297435635
121.80065004191152
123.79934397548615
127.47184971772921
133.78829731413862
143.95360597586992
159.2769653833544
180.9520031566933
209.79088436824694
225.89916313808695
190.95508278723145
164.54638124155096
145.51338304279756
132.45239998329077
123.92339612495385
118.62183527980018
115.48164688009797
113.70635970722313
112.74642052481553
112.24881775793654
112.00093679905444
111.8819949695401
111.82694491082734
111.80249352526357
111.79260941919587
111.79065418955415
111.79609401632052
111.8149616074971
111.86468586243585
111.98546530016002
112.26173197840009
112.85755138965628
114.06735159606762
116.37643578082992
120.51432818094094
127.47184746856398
138.45003888537175
154.7193045692075
177.39756858675474
207.20129705111611
216.8268392903788
183.4438180457276
158.0584875421162
139.65316741081608
126.95400023494737
118.62183268318695
113.42175934568021
110.33139838125459
108.57948592489778
107.63007388209634
107.13704145705962
106.89108281066389
106.77293731307924
106.71824182128327
106.694043496371
106.68457854251338
106.68363458961515
106.69158502232911
106.71640249648053
106.7793930527043
106.92785006559711
107.25793477442284
107.95093266297856
109.32313426654349
111.88269972784688
116.3764329876555
123.79933777889782
135.3366281377651
152.2203102041718
175.51366787023917
205.87682766599832
211.3592343475163
179.00651873968872
154.25366243434866
136.21302126056747
123.71193851279482
115.48165442565205
110.33139673112558
107.26429274429252
105.52278562915664
104.57786179256676
104.0866978406351
103.84150011446988
103.72367057915577
103.6691466277561
103.64515431852446
103.63614277572373
103.63631979949557
103.6469543661192
103.67784098189867
103.75370320865679
103.92765711028139
104.30474994596985
105.07815853839676
106.5776170663674
109.32313293128357
114.06734980533932
121.80065112147524
133.6907260883406
150.9409217207026
174.58150618686832
205.2441761177759
208.22501070508136
176.50969664135292
152.12496861646812
134.28454866542734
121.88640961570863
113.70635288833691
108.57948471027315
105.52278985616185
103.78573774004794
102.84265586858754
102.35223126318338
102.1073288575002
101.98963236351445
101.93521795151243
101.91142654234137
101.90289802505957
101.90423775714937
101.9175327088973
101.9541435112924
102.04153407881304
102.23714551794902
102.65207566673206
103.48678904318638
105.07815974264687
107.95093272679124
112.85755055962287
120.78138176483239
132.87639834373022
150.3282630501588
174.15005118596073
204.96131154323805
206.51151571652647
175.16774077369905
150.98587912400484
133.24990574261105
120.90277508088917
112.74641980991117
107.63007774044958
104.57786109938007
102.84265526103368
101.9003041070434
101.41016670363494
101.16538112381228
101.04775275696413
100.9934299280645
100.96984167977502
100.96179965867852
100.96426150538683
100.98000028764531
101.02160582423139
101.11853936023822
101.33114357118728
101.77419902599544
102.65207487866252
104.30474964860392
107.25793466932052
112.26173167057705
120.29352842126936
132.49856593254614
150.0531432729751
173.96267566094292
204.84251232285132
205.6154994713473
174.4770240785683
150.401332756535
132.71735612909643
120.39440412916775
112.24881909384948
107.13704689520904
104.08669796460556
102.35223221244694
101.41016664972418
100.92014158760745
100.67540880853693
100.55782871441632
100.50359336409349
100.4802050663068
100.47262213986524
100.47609095161071
100.49391220099393
100.53955534337743
100.64380162525491
100.86874422547243
101.3311442426506
102.23714577039765
103.92765635979413
106.92784880126409
111.98546417498062
120.07393417788633
132.33380397904904
149.9370365900251
173.8861826606065
204.79557525303514
205.1659008563454
174.13550278644314
150.11290727427064
132.45373798804553
120.14182378107597
112.00093987077497
106.89107998399521
103.8415006646116
102.10732717408138
101.16538113926924
100.6754092548818
100.4307128131422
100.31317921628691
100.25903169551904
100.23583215833364
100.22865567657063
100.23296633847974
100.25243613284377
100.30110782749978
100.41055149602613
100.64380210257339
101.11853973783516
102.04153374665913
103.75370469545807
106.77939549312832
111.86469080585192
119.98081979879854
132.2661302916113
149.89088068942664
173.85677113489373
204.77822138373386
204.9490145494246
173.97286218608508
149.97573045225766
132.32790909422638
120.02089286553314
111.88200449145772
106.7729367143919
103.72367309205636
101.98963151055167
101.04775324383358
100.55782845614544
100.31317907478879
100.19570435761884
100.14165088160117
100.1186258978469
100.1117907977548
100.1167606396552
100.13744658308777
100.18823093395983
100.30110750335089
100.53955523078282
101.02160635940463
101.95414224848676
103.6778404710527
106.71640150773183
111.81495986091672
119.94370758850721
132.2400719101773
149.87376409104746
173.8463255379915
204.77251328238538
204.84803439470952
173.89804656602902
149.9126834075347
132.26991566736743
119.96499426616725
111.82693949766097
106.71824208797445
103.6691447922247
101.93521742127093
100.99343069074716
100.50359303181584
100.25903166893703
100.14165084968964
100.08771248414116
100.06485531214778
100.05830039589395
100.06375986206329
100.08528674190325
100.13744653719824
100.25243621660479
100.49391214287273
100.98000061798756
101.9175325947512
103.64695577011666
106.69158770542614
111.79609156087874
119.93023030784767
132.23111861015144
149.86834701324238
173.84358330050392
204.7717956989943
204.80259707751284
173.86477260960922
149.88462813347394
132.24411852540635
119.94012416489211
111.80249212796922
106.6940477346961
103.64515384299997
101.91142650200368
100.96984151838568
100.48020504914571
100.23583225827306
100.11862586622331
100.06485534156856
100.04218135216777
100.03586540895184
100.04168053522226
100.06375983591239
100.11676056441793
100.23296622206658
100.47609097057276
100.96426127084898
101.90423658317661
103.6363193028576
106.68363345829889
111.79065343625048
119.92697663413499
132.22965212458445
149.86829052873037
173.84480774675046
204.77458479723697
204.78280475741894
173.85049151741202
149.8727040131048
132.23324862352285
119.92979380016878
111.79260910974148
106.68457492235814
103.63614291219795
101.90289861827802
100.96179946770792
100.47262218766207
100.22865543008487
100.11179080426521
100.05830035002771
100.0358654092869
100.02978129666953
100.03586542063174
100.05830036722918
100.11179088429249
100.22865553962882
100.47262204925423
100.96180003808117
101.90289800182238
103.63614438174909
106.68457700265868
111.79260727105381
119.92980102689218
132.2332421355795
149.87272058055856
173.85046057755048
204.78280667868273
204.77461363223009
173.84478819574616
149.8683112389145
132.2296690855409
119.92697432744177
111.79066028768828
106.68363359920325
103.63632110234299
101.90423657534647
100.96426188427697
100.47609136338984
100.23296621176169
100.11676074336654
100.06375984831325
100.04168054628495
100.03586542944697
100.04218137075564
100.06485528556675
100.11862589521098
100.23583208264021
100.48020474710323
100.96984150557024
101.91142545655269
103.64515364035049
106.69404327533536
111.80249326311693
119.94011184645635
132.24410222858438
149.88463788879835
173.8647375217546
204.80258915311256
204.77182759922712
173.84356196513008
149.8683558700901
132.23110727714285
119.93023271984568
111.79608775534423
106.69158498804843
103.64695675460389
101.91753148672971
100.980000869821
100.49391191651088
100.25243605145437
100.13744649861594
100.0852867153843
100.06375988224138
100.05830040285504
100.064855318994
100.0877125203817
100.14165089802624
100.25903159131279
100.50359330393842
100.9934303117135
101.93521814854348
103.66914580000449
106.71824063029358
111.82694337932195
119.96498837383008
132.2699244731301
149.91265306036988
173.89803812607286
204.848056291113
204.7724771801186
173.84633793362408
149.8737740866885
132.24005846198546
119.94371115867672
111.81495564290063
106.71640193866558
103.67783890632364
101.95414256201953
101.02160667323933
100.53955497232073
100.30110774696693
100.18823088745155
100.13744655445815
100.11676063555292
100.11179079451256
100.11862587892753
100.14165091358358
100.19570430952578
100.3131790178753
100.55782863264926
101.04775305623761
101.98963208665563
103.7236716952116
106.77293947822619
111.88199967601017
120.0208864594792
132.32792210074555
149.9757125364587
173.97286587910588
204.94905067484277
204.77820027977094
173.85678189479225
149.89086317348517
132.26613293112254
119.98081330068884
111.86468617618212
106.77939707654323
103.75370272577305
102.0415342254572
101.11853931738658
100.64380178891402
100.41055141748275
100.30110776681114
100.2524361844325
100.23296635552633
100.22865567926603
100.23583217260509
100.2590317134135
100.31317917188842
100.43071293540098
100.67540903163679
101.16538147287297
102.10732759117359
103.84149957471081
106.89108184561402
112.00093525133677
120.14182873805292
132.4537149017691
150.11290099620692
174.13552472455294
205.16596001949185
204.79558422141974
173.88619182830723
149.93701598256789
132.33380826064771
120.07392736812213
111.98546486270189
106.92784612759127
103.9276569660453
102.23714638231098
101.33114376860999
100.86874472041137
100.64380156073612
100.53955529224953
100.49391218540843
100.47609092512151
100.47262214219403
100.48020510113763
100.50359333184981
100.55782869595824
100.67540888654345
100.92014146124147
101.41016690214316
102.35223131640657
104.08669940690419
107.13704366061154
112.24881488475869
120.394413311383
132.71734580305028
150.4013431068779
174.47707314135872
205.61543893318975
204.8425175260595
173.96264845472103
150.05314605432255
132.49855611551814
120.29352138110389
112.26173430327302
107.25793148687951
104.30475056492936
102.65207417697889
101.77419848213464
101.3311434252082
101.11853922745787
101.021605936413
100.9800003579146
100.96426151553929
100.96179966282298
100.96984167999805
100.99342990118708
101.04775281328367
101.16538100822224
101.41016688174565
101.90030427636204
102.84265463034697
104.57786218234088
107.63007511476856
112.74642395246212
120.90276166561793
133.24990717715244
150.98590865717426
175.16781532786064
206.51149930449463
204.96133891923384
174.1500417872411
150.32828292776128
132.87639888439156
120.78139041657639
112.85755155284077
107.9509375645992
105.07816365272409
103.48679045732526
102.65207853053298
102.2371472478829
102.04153570442767
101.95414514085888
101.91753427372187
101.90423942922882
101.90289974878691
101.91142813827548
101.935219608857
101.98963401061248
102.10733032167879
102.352232832687
102.84265662916485
103.78573946478319
105.52278836211889
108.57948208473144
113.70635801347444
121.8864014931043
134.28455521638867
152.12500538330627
176.5096371279807
208.22498694020996
205.2441689694941
174.5815306695461
150.94092333048337
133.6907273461423
121.80066350760548
114.06735120973445
109.32313934886515
106.57761995000612
105.07816114521425
104.30475290154436
103.92765991036373
103.75370645375422
103.67784420499669
103.6469573985359
103.636322782747
103.63614573177651
103.64515727524913
103.66914962356083
103.72367347686851
103.84150316825362
104.08670067897597
104.57786411161345
105.5227886293957
107.26429317638838
110.33140079639766
115.4816464593227
123.71193945944879
136.21304070892472
154.2537110653206
179.00648805641254
211.35921857163598
205.87681179646702
175.51368673216118
152.22030561620292
135.3366368906155
123.79933675146324
116.37643892255156
111.88270500443139
109.32313591601134
107.95093699494005
107.25793747025479
106.9278525552316
106.77939552397783
106.71640480036913
106.69158762083944
106.6836373261772
106.6845810033643
106.69404616307838
106.71824442234262
106.77293978254413
106.8910854247803
107.13704374941602
107.63007682174171
108.5794873001251
110.33139989390548
113.4217662552796
118.62183220840967
126.9540108190878
139.6532000325004
158.0584437954268
183.44379635166106
216.82684127729019
207.2013048266972
177.39755320636758
154.71929292126444
138.45004574255898
127.47184150075417
120.51433109486311
116.37643450830572
114.06735049377555
112.85755106399449
112.26173149451935
111.98546575607428
111.8646864674666
111.81496180393046
111.7960940848453
111.79065418414389
111.79260949324782
111.80249363654951
111.82694501828887
111.88199533075596
112.0009368721549
112.2488178458226
112.74642126200408
113.7063593592158
115.48164935972237
118.62183127419054
123.92339905196054
132.45241668080368
145.513420674272
164.54635547629059
190.95506186379077
225.89916572935567
209.7908827216609
180.9519778262543
159.2769606446094
143.9535904360908
133.78829304739614
127.47184571610411
123.79933533680287
121.80064579748715
120.78137671133126
120.29352176552746
120.07393020805918
119.98081674140687
119.94370259014619
119.9302276172208
119.92697066005807
119.92979687260714
119.94010507744677
119.9649845467316
120.02088449679663
120.14182394116607
120.39440589786052
120.90275703620493
121.88640249722879
123.71193805242673
126.95400515259779
132.45241143343551
141.34217823132838
155.0276395290612
175.07720182392606
203.0358750770686
240.18305863613867
214.5111055065712
187.2044744111493
167.02996300686345
153.03722475057296
143.95363717190685
138.45005619966292
135.33665550679248
133.69074383325972
132.87642042356248
132.4986008585525
132.33382547475216
132.26615469575026
132.24009230726816
132.23114175985452
132.2296714780986
132.2332651216991
132.24413703911307
132.26994519475005
132.32793864198993
132.45374509465762
132.71737036515754
133.24992676804402
134.28458522772164
136.21306315465725
139.65321710721065
145.5134345807996
155.0276635102752
169.726843222806
191.31719480032945
221.45940764931126
261.4801322954422
222.52882621812552
197.45708411690424
179.32504281126245
167.0299417144384
159.27699480072874
154.71931604068854
152.22033604021414
150.94095600391938
150.32827969221535
150.05317723932936
149.93705105860028
149.8908998519903
149.87377853231007
149.86836595790672
149.86832582155967
149.87273642241024
149.88466065207865
149.91268118502242
149.9757331773623
150.1129286868985
150.40136297767057
150.98592089961946
152.12503446257642
154.2537303356115
158.05846761847522
164.54636939008233
175.07721690448057
191.31719734094432
215.08031580130518
248.0593541651821
291.5032598274169
235.23943126019537
213.1555148258035
197.45706424025659
187.20446298285776
180.95201255446676
177.39759579848374
175.51367816561194
174.581532359024
174.15005437456105
173.9627020012336
173.88618300641176
173.85677806992177
173.84635620937868
173.84358833041162
173.8448200967879
173.85047862811058
173.86476260543077
173.8980550941968
173.97287471162284
174.1355428529936
174.4770813134584
175.16781316290283
176.50967066179214
179.0065024996033
183.44381092541818
190.95507183065243
203.03588329207264
221.4594151906406
248.05934822235875
284.38370570952804
331.45593849680967
254.39456370588917
235.23940403678765
222.52881317007018
214.51110776384746
209.7908755300762
207.20130736282331
205.87681874069384
205.24418658488014
204.96129336240122
204.84251952784606
204.79558842287622
204.77820766818218
204.77250973936955
204.7717967489666
204.77459291223659
204.78280439935918
204.8025968370658
204.84805558437435
204.9490406876094
205.16595874264917
205.61544237443235
206.5114837248318
208.2250028455158
211.35922066188866
216.8268361233305
225.89916081331555
240.18305727308086
261.4801241073686
291.5032368422688
331.4559205654523
380.7706099813559
