# vtk DataFile Version 2.0
Unstructured Grid Example
ASCII
DATASET UNSTRUCTURED_GRID

POINTS 961 float
0.150000006 -0.00839745998 0
0.146666661 -0.00839745998 0
0.143333331 -0.00839745998 0
0.140000001 -0.00839745998 0
0.13666667 -0.00839745998 0
0.13333334 -0.00839745998 0
0.129999995 -0.00839745998 0
0.126666665 -0.00839745998 0
0.123333335 -0.00839745998 0
0.119999997 -0.00839745998 0
0.116666667 -0.00839745998 0
0.113333337 -0.00839745998 0
0.109999999 -0.00839745998 0
0.106666669 -0.00839745998 0
0.103333332 -0.00839745998 0
0.100000001 -0.00839745998 0
0.0966666639 -0.00839745998 0
0.0933333337 -0.00839745998 0
0.0900000036 -0.00839745998 0
0.086666666 -0.00839745998 0
0.0833333358 -0.00839745998 0
0.0799999982 -0.00839745998 0
0.0766666681 -0.00839745998 0
0.0733333305 -0.00839745998 0
0.0700000003 -0.00839745998 0
0.0666666701 -0.00839745998 0
0.0633333325 -0.00839745998 0
0.0599999987 -0.00839745998 0
0.0566666685 -0.00839745998 0
0.0533333346 -0.00839745998 0
0.0500000007 -0.00839745998 0
0.148333326 -0.0112842107 0
0.144999996 -0.0112842107 0
0.141666666 -0.0112842107 0
0.138333336 -0.0112842107 0
0.135000005 -0.0112842107 0
0.13166666 -0.0112842107 0
0.12833333 -0.0112842107 0
0.125 -0.0112842107 0
0.12166667 -0.0112842107 0
0.118333332 -0.0112842107 0
0.115000002 -0.0112842107 0
0.111666664 -0.0112842107 0
0.108333334 -0.0112842107 0
0.104999997 -0.0112842107 0
0.101666667 -0.0112842107 0
0.0983333364 -0.0112842107 0
0.0949999988 -0.0112842107 0
0.0916666687 -0.0112842107 0
0.088333331 -0.0112842107 0
0.0850000009 -0.0112842107 0
0.0816666633 -0.0112842107 0
0.0783333331 -0.0112842107 0
0.075000003 -0.0112842107 0
0.0716666654 -0.0112842107 0
0.0683333352 -0.0112842107 0
0.0649999976 -0.0112842107 0
0.0616666675 -0.0112842107 0
0.0583333336 -0.0112842107 0
0.0549999997 -0.0112842107 0
0.0516666658 -0.0112842107 0
0.0483333319 -0.0112842107 0
0.146666661 -0.0141709624 0
0.143333331 -0.0141709624 0
0.140000001 -0.0141709624 0
0.13666667 -0.0141709624 0
0.13333334 -0.0141709624 0
0.129999995 -0.0141709624 0
0.126666665 -0.0141709624 0
0.123333335 -0.0141709624 0
0.119999997 -0.0141709624 0
0.116666667 -0.0141709624 0
0.113333337 -0.0141709624 0
0.109999999 -0.0141709624 0
0.106666669 -0.0141709624 0
0.103333332 -0.0141709624 0
0.100000001 -0.0141709624 0
0.0966666639 -0.0141709624 0
0.0933333337 -0.0141709624 0
0.0900000036 -0.0141709624 0
0.086666666 -0.0141709624 0
0.0833333358 -0.0141709624 0
0.0799999982 -0.0141709624 0
0.0766666681 -0.0141709624 0
0.0733333305 -0.0141709624 0
0.0700000003 -0.0141709624 0
0.0666666701 -0.0141709624 0
0.0633333325 -0.0141709624 0
0.0599999987 -0.0141709624 0
0.0566666685 -0.0141709624 0
0.0533333346 -0.0141709624 0
0.0500000007 -0.0141709624 0
0.0466666669 -0.0141709624 0
0.144999996 -0.0170577131 0
0.141666666 -0.0170577131 0
0.138333336 -0.0170577131 0
0.135000005 -0.0170577131 0
0.13166666 -0.0170577131 0
0.12833333 -0.0170577131 0
0.125 -0.0170577131 0
0.12166667 -0.0170577131 0
0.118333332 -0.0170577131 0
0.115000002 -0.0170577131 0
0.111666664 -0.0170577131 0
0.108333334 -0.0170577131 0
0.104999997 -0.0170577131 0
0.101666667 -0.0170577131 0
0.0983333364 -0.0170577131 0
0.0949999988 -0.0170577131 0
0.0916666687 -0.0170577131 0
0.088333331 -0.0170577131 0
0.0850000009 -0.0170577131 0
0.0816666633 -0.0170577131 0
0.0783333331 -0.0170577131 0
0.075000003 -0.0170577131 0
0.0716666654 -0.0170577131 0
0.0683333352 -0.0170577131 0
0.0649999976 -0.0170577131 0
0.0616666675 -0.0170577131 0
0.0583333336 -0.0170577131 0
0.0549999997 -0.0170577131 0
0.0516666658 -0.0170577131 0
0.0483333319 -0.0170577131 0
0.0450000018 -0.0170577131 0
0.143333331 -0.0199444648 0
0.140000001 -0.0199444648 0
0.13666667 -0.0199444648 0
0.13333334 -0.0199444648 0
0.129999995 -0.0199444648 0
0.126666665 -0.0199444648 0
0.123333335 -0.0199444648 0
0.119999997 -0.0199444648 0
0.116666667 -0.0199444648 0
0.113333337 -0.0199444648 0
0.109999999 -0.0199444648 0
0.106666669 -0.0199444648 0
0.103333332 -0.0199444648 0
0.100000001 -0.0199444648 0
0.0966666639 -0.0199444648 0
0.0933333337 -0.0199444648 0
0.0900000036 -0.0199444648 0
0.086666666 -0.0199444648 0
0.0833333358 -0.0199444648 0
0.0799999982 -0.0199444648 0
0.0766666681 -0.0199444648 0
0.0733333305 -0.0199444648 0
0.0700000003 -0.0199444648 0
0.0666666701 -0.0199444648 0
0.0633333325 -0.0199444648 0
0.0599999987 -0.0199444648 0
0.0566666685 -0.0199444648 0
0.0533333346 -0.0199444648 0
0.0500000007 -0.0199444648 0
0.0466666669 -0.0199444648 0
0.043333333 -0.0199444648 0
0.141666666 -0.0228312165 0
0.138333336 -0.0228312165 0
0.135000005 -0.0228312165 0
0.13166666 -0.0228312165 0
0.12833333 -0.0228312165 0
0.125 -0.0228312165 0
0.12166667 -0.0228312165 0
0.118333332 -0.0228312165 0
0.115000002 -0.0228312165 0
0.111666664 -0.0228312165 0
0.108333334 -0.0228312165 0
0.104999997 -0.0228312165 0
0.101666667 -0.0228312165 0
0.0983333364 -0.0228312165 0
0.0949999988 -0.0228312165 0
0.0916666687 -0.0228312165 0
0.088333331 -0.0228312165 0
0.0850000009 -0.0228312165 0
0.0816666633 -0.0228312165 0
0.0783333331 -0.0228312165 0
0.075000003 -0.0228312165 0
0.0716666654 -0.0228312165 0
0.0683333352 -0.0228312165 0
0.0649999976 -0.0228312165 0
0.0616666675 -0.0228312165 0
0.0583333336 -0.0228312165 0
0.0549999997 -0.0228312165 0
0.0516666658 -0.0228312165 0
0.0483333319 -0.0228312165 0
0.0450000018 -0.0228312165 0
0.0416666679 -0.0228312165 0
0.140000001 -0.0257179681 0
0.13666667 -0.0257179681 0
0.13333334 -0.0257179681 0
0.129999995 -0.0257179681 0
0.126666665 -0.0257179681 0
0.123333335 -0.0257179681 0
0.119999997 -0.0257179681 0
0.116666667 -0.0257179681 0
0.113333337 -0.0257179681 0
0.109999999 -0.0257179681 0
0.106666669 -0.0257179681 0
0.103333332 -0.0257179681 0
0.100000001 -0.0257179681 0
0.0966666639 -0.0257179681 0
0.0933333337 -0.0257179681 0
0.0900000036 -0.0257179681 0
0.086666666 -0.0257179681 0
0.0833333358 -0.0257179681 0
0.0799999982 -0.0257179681 0
0.0766666681 -0.0257179681 0
0.0733333305 -0.0257179681 0
0.0700000003 -0.0257179681 0
0.0666666701 -0.0257179681 0
0.0633333325 -0.0257179681 0
0.0599999987 -0.0257179681 0
0.0566666685 -0.0257179681 0
0.0533333346 -0.0257179681 0
0.0500000007 -0.0257179681 0
0.0466666669 -0.0257179681 0
0.043333333 -0.0257179681 0
0.0399999991 -0.0257179681 0
0.138333336 -0.0286047198 0
0.135000005 -0.0286047198 0
0.13166666 -0.0286047198 0
0.12833333 -0.0286047198 0
0.125 -0.0286047198 0
0.12166667 -0.0286047198 0
0.118333332 -0.0286047198 0
0.115000002 -0.0286047198 0
0.111666664 -0.0286047198 0
0.108333334 -0.0286047198 0
0.104999997 -0.0286047198 0
0.101666667 -0.0286047198 0
0.0983333364 -0.0286047198 0
0.0949999988 -0.0286047198 0
0.0916666687 -0.0286047198 0
0.088333331 -0.0286047198 0
0.0850000009 -0.0286047198 0
0.0816666633 -0.0286047198 0
0.0783333331 -0.0286047198 0
0.075000003 -0.0286047198 0
0.0716666654 -0.0286047198 0
0.0683333352 -0.0286047198 0
0.0649999976 -0.0286047198 0
0.0616666675 -0.0286047198 0
0.0583333336 -0.0286047198 0
0.0549999997 -0.0286047198 0
0.0516666658 -0.0286047198 0
0.0483333319 -0.0286047198 0
0.0450000018 -0.0286047198 0
0.0416666679 -0.0286047198 0
0.038333334 -0.0286047198 0
0.13666667 -0.0314914696 0
0.13333334 -0.0314914696 0
0.129999995 -0.0314914696 0
0.126666665 -0.0314914696 0
0.123333335 -0.0314914696 0
0.119999997 -0.0314914696 0
0.116666667 -0.0314914696 0
0.113333337 -0.0314914696 0
0.109999999 -0.0314914696 0
0.106666669 -0.0314914696 0
0.103333332 -0.0314914696 0
0.100000001 -0.0314914696 0
0.0966666639 -0.0314914696 0
0.0933333337 -0.0314914696 0
0.0900000036 -0.0314914696 0
0.086666666 -0.0314914696 0
0.0833333358 -0.0314914696 0
0.0799999982 -0.0314914696 0
0.0766666681 -0.0314914696 0
0.0733333305 -0.0314914696 0
0.0700000003 -0.0314914696 0
0.0666666701 -0.0314914696 0
0.0633333325 -0.0314914696 0
0.0599999987 -0.0314914696 0
0.0566666685 -0.0314914696 0
0.0533333346 -0.0314914696 0
0.0500000007 -0.0314914696 0
0.0466666669 -0.0314914696 0
0.043333333 -0.0314914696 0
0.0399999991 -0.0314914696 0
0.0366666652 -0.0314914696 0
0.135000005 -0.0343782231 0
0.13166666 -0.0343782231 0
0.12833333 -0.0343782231 0
0.125 -0.0343782231 0
0.12166667 -0.0343782231 0
0.118333332 -0.0343782231 0
0.115000002 -0.0343782231 0
0.111666664 -0.0343782231 0
0.108333334 -0.0343782231 0
0.104999997 -0.0343782231 0
0.101666667 -0.0343782231 0
0.0983333364 -0.0343782231 0
0.0949999988 -0.0343782231 0
0.0916666687 -0.0343782231 0
0.088333331 -0.0343782231 0
0.0850000009 -0.0343782231 0
0.0816666633 -0.0343782231 0
0.0783333331 -0.0343782231 0
0.075000003 -0.0343782231 0
0.0716666654 -0.0343782231 0
0.0683333352 -0.0343782231 0
0.0649999976 -0.0343782231 0
0.0616666675 -0.0343782231 0
0.0583333336 -0.0343782231 0
0.0549999997 -0.0343782231 0
0.0516666658 -0.0343782231 0
0.0483333319 -0.0343782231 0
0.0450000018 -0.0343782231 0
0.0416666679 -0.0343782231 0
0.038333334 -0.0343782231 0
0.0350000001 -0.0343782231 0
0.13333334 -0.0372649729 0
0.129999995 -0.0372649729 0
0.126666665 -0.0372649729 0
0.123333335 -0.0372649729 0
0.119999997 -0.0372649729 0
0.116666667 -0.0372649729 0
0.113333337 -0.0372649729 0
0.109999999 -0.0372649729 0
0.106666669 -0.0372649729 0
0.103333332 -0.0372649729 0
0.100000001 -0.0372649729 0
0.0966666639 -0.0372649729 0
0.0933333337 -0.0372649729 0
0.0900000036 -0.0372649729 0
0.086666666 -0.0372649729 0
0.0833333358 -0.0372649729 0
0.0799999982 -0.0372649729 0
0.0766666681 -0.0372649729 0
0.0733333305 -0.0372649729 0
0.0700000003 -0.0372649729 0
0.0666666701 -0.0372649729 0
0.0633333325 -0.0372649729 0
0.0599999987 -0.0372649729 0
0.0566666685 -0.0372649729 0
0.0533333346 -0.0372649729 0
0.0500000007 -0.0372649729 0
0.0466666669 -0.0372649729 0
0.043333333 -0.0372649729 0
0.0399999991 -0.0372649729 0
0.0366666652 -0.0372649729 0
0.0333333351 -0.0372649729 0
0.13166666 -0.0401517227 0
0.12833333 -0.0401517227 0
0.125 -0.0401517227 0
0.12166667 -0.0401517227 0
0.118333332 -0.0401517227 0
0.115000002 -0.0401517227 0
0.111666664 -0.0401517227 0
[...]
POINT_DATA 961
SCALARS Temp float 1
LOOKUP_TABLE default
166.9357381605715
137.2184249697642
128.30799115316935
126.29637264284713
125.83907034050625
125.73535742768924
125.71180029873376
125.70643417978442
125.70521463448604
125.7049367734453
125.70487036188595
125.70485946040247
125.70485623401261
125.70485508850928
125.70485782649929
125.70485431131432
125.70485455706608
125.7048518628085
125.7048551195468
125.7048548997644
125.70485493161635
125.70485792709034
125.7048552828339
125.70486153750107
125.70490199613768
125.70522576174636
125.70763286846895
125.72595678820393
125.87164736890817
127.0265239387574
140.66766270630433
137.21843705281512
112.70348097869294
107.4189225090961
106.21581012019283
105.94308497092211
105.88111386420292
105.86701299292926
105.86380570357555
105.8630749183253
105.86290818051779
105.86287180667964
105.86286169878265
105.86285944448963
105.86285949356768
105.8628572017562
105.86285902574427
105.86285902438458
105.86286048268025
105.86285910590462
105.86285904625954
105.86285947626067
105.86285756543333
105.86286177046433
105.86287922000912
105.86300811258708
105.86394264098584
105.8708744002206
105.92309984438299
106.31605022659994
109.58235465725025
127.02652966525224
128.30798756020314
107.41892588672516
102.71553666147885
101.65071206622507
101.40860288885393
101.35348572264166
101.34092895873933
101.33806750064335
101.33741468058757
101.33726568726539
101.33723206212395
101.3372242526745
101.33722251737994
101.33722193469252
101.33722225142333
101.33722190155248
101.33722175463421
101.337222025302
101.33722198621668
101.33722203800768
101.33722191524762
101.33722325377147
101.33722932414688
101.33727430926854
101.33759606703599
101.33988113170638
101.35608131832613
101.46884907933142
102.2485368838088
106.3160443592089
125.87164508672156
126.29637177335734
106.2158153396784
101.65071423413391
100.61160775540584
100.3748885512478
100.32093337951112
100.30863230853286
100.30582726406057
100.30518755229686
100.30504176016798
100.30500840489314
100.30500080538857
100.30499905323033
100.3049986213514
100.304998596275
100.3049985673384
100.30499865089867
100.3049985788844
100.30499858408106
100.30499859021008
100.30499886049292
100.30500106522388
100.30501580997144
100.30511730538379
100.30580715407845
100.31042662028887
100.34037786007022
100.52552578017597
101.46884973739753
105.92310459728802
125.72595683250073
125.83907742131402
105.94308715618021
101.408604870747
100.37488984093994
100.13919158450597
100.0854441003607
100.07318667632669
100.07039113485598
100.069753542576
100.0696081395825
100.06957496890442
100.06956739877978
100.06956567388664
100.0695652995857
100.06956519088266
100.06956516427225
100.0695651744365
100.06956517351767
100.06956518115766
100.0695652779075
100.06956597599064
100.06957049372846
100.06960055998522
100.06979673169208
100.07104449555953
100.07866360277733
100.12238567262251
100.34037755245258
101.35608140470018
105.87087389601447
125.70763520901005
125.73535770040883
105.88111899718919
101.35348804325587
100.32093242425293
100.08544381695926
100.03173563809825
100.01948606799641
100.01669218573238
100.01605496301937
100.01590961812444
100.01587646694429
100.01586890621212
100.01586717981932
100.01586678960655
100.01586669956359
100.01586668388246
100.01586667616935
100.01586667842349
100.01586670830655
100.01586691044909
100.01586824224394
100.01587675758894
100.01593016709116
100.01625487601953
100.01814146369307
100.02841309615513
100.07866358382272
100.31042675008278
101.33988238033646
105.86393589003471
125.70521896679416
125.71179453535564
105.86701876359196
101.34093305138691
100.30863036576308
100.07318637964529
100.01948605017948
100.00723793979978
100.0044443635694
100.0038071969067
100.00366186870674
100.00362872188485
100.00362116171914
100.00361943833605
100.00361904406064
100.00361895408227
100.00361893458934
100.00361893104011
100.00361893896387
100.00361899783621
100.00361937369762
100.00362169934374
100.00363577446299
100.00371804555155
100.00417676977163
100.00657897865612
100.01814145409804
100.07104444685791
100.30580699964419
101.33759509180985
105.86300571133245
125.70490889736884
125.70643907754629
105.8638087341269
101.33806092983579
100.30582554779618
100.0703910109116
100.01669222379172
100.0044443633323
100.00165084183365
100.00101368332803
100.00086835826379
100.00083521201469
100.00082765181133
100.00082592763856
100.00082553433865
100.00082544494215
100.00082542467509
100.00082542260702
100.0008254381647
100.0008255403863
100.00082615834069
100.00082977666715
100.00085021053977
100.00096031432585
100.00151994790889
100.00417676778406
100.0162548762355
100.06979673909761
100.30511726526697
101.33727307137725
105.86287194695481
125.70485410631608
125.70520734140341
105.8630813831682
101.33740534840544
100.30518663784937
100.06975359443517
100.01605496090016
100.00380720063426
100.0010136864716
100.00037652902152
100.00023120466358
100.00019805844256
100.00019049841549
100.00018877403394
100.00018838074506
100.0001882911958
100.00018827146566
100.0001882713492
100.00018829764943
100.00018845783937
100.00018936983847
100.00019436837403
100.00022054345423
100.00035049699025
100.00096031529769
100.0037180444061
100.01593015901439
100.06960055460709
100.30501556619201
101.33722935781026
105.86286290221197
125.70486340885577
125.70492350961818
105.8628762152424
101.3372623246023
100.30504186868124
100.06960841231455
100.01590963021093
100.00366187815413
100.00086835892351
100.00023120456794
100.00008588001677
100.0000527339218
100.00004517384653
100.00004344951347
100.00004305626743
100.00004296675614
100.0000429475146
100.00004295000016
100.00004298979151
100.00004321589554
100.00004442418998
100.00005060141649
100.00008069629789
100.00022054326017
100.00085021001618
100.00363577487033
100.0158767584485
100.06957050311954
100.30500050534009
101.3372214506903
105.86285221035885
125.70484806868869
125.70489360986026
105.8628496608355
101.33723250520889
100.30500905210705
100.06957501107698
100.01587648492962
100.00362873349403
100.00083521155554
100.00019805861682
100.00005273389984
100.00001958784685
100.0000120277551
100.00001030343343
100.00000991019876
100.00000982081545
100.00000980219284
100.00000980777799
100.00000986217321
100.00001015129497
100.00001160072816
100.0000185543231
100.00005060145884
100.00019436845706
100.00082977630288
100.00362169773385
100.01586823727979
100.06956589525838
100.30499876667955
101.33722227792826
105.86286444514184
125.7048519600434
125.70484434994162
105.86285869357766
101.33722640393182
100.30500177124787
100.06956735674147
100.0158689202952
100.00362115819689
100.0008276516393
100.00019049796111
100.00004517384755
100.0000120277715
100.00000446767044
100.00000274335878
100.00000235015087
100.00000226091446
100.00000224299579
100.00000225177743
100.00000231948569
100.00000265782074
100.00000426139972
100.00001160075028
100.00004442423344
100.00018936971173
100.00082615894969
100.00361937594789
100.01586692939141
100.06956522970265
100.30499840454046
101.33722256990717
105.86285867447293
125.70486238986561
125.70485793701893
105.8628664897411
101.3372256360288
100.30499901878977
100.06956567528643
100.01586721782863
100.00361943358665
100.00082592912428
100.00018877372173
100.00004344955963
100.00001030342342
100.00000274335463
100.00000101905373
100.00000062588627
100.00000053681494
100.00000051959626
100.00000053118015
100.00000060891558
100.0000009779166
100.00000265781496
100.00001015129104
100.00004321594979
100.0001884574902
100.00082554013075
100.00361899696522
100.0158666969771
100.06956516268575
100.30499857913192
101.33722288598547
105.86284898444354
125.7048508336159
125.70485339977407
105.86286283945446
101.33722556582077
100.30499807135762
100.0695652633495
100.01586676769266
100.00361904295116
100.00082553352172
100.00018838058374
100.00004305634567
100.00000991017824
100.00000235014865
100.00000062588589
100.00000023278999
100.00000014389977
100.00000012729112
100.00000014093095
100.00000022478658
100.00000060891503
100.00000231948732
100.0000098621685
100.00004298981399
100.00018829760124
100.00082543894818
100.00361894311843
100.01586666943899
100.06956514215408
100.30499845880155
101.33722111178687
105.86286087080688
125.70485364671518
125.7048592348818
105.8628650609247
101.33722047949118
100.30499822221991
100.06956533236612
100.0158666861563
100.00361896179349
100.00082544414688
100.00018829112648
100.0000429667414
100.00000982080942
100.0000022609168
100.0000005368145
100.00000014389988
100.00000005525291
100.00000003914273
100.00000005405066
100.00000014093082
100.00000053117932
100.00000225177453
100.00000980777992
100.00004294998108
100.0001882710773
100.00082542248339
100.0036189286372
100.01586667342599
100.06956516164394
100.30499852385528
101.33722036837602
105.86285814923662
125.70485303727696
125.7048507901237
105.86286471276442
101.33721850819158
100.30499851194112
100.06956510581145
100.01586667819467
100.00361893036546
100.00082542441713
100.00018827159172
100.00004294747006
100.00000980219285
100.00000224299097
100.00000051959618
100.00000012729087
100.00000003914275
100.00000002351982
100.00000003914279
100.00000012729089
100.00000051959724
100.00000224299299
100.00000980218584
100.00004294755196
100.00018827145313
100.00082542566163
100.00361893238912
100.01586667169222
100.06956514485574
100.30499833687924
101.33722296383341
105.8628561539642
125.70485711248423
125.70485010273916
105.86284582197948
101.33722189501418
100.30499936099142
100.0695651265725
100.01586670456363
100.00361892674246
100.00082542294702
100.00018827106351
100.00004295002518
100.00000980779944
100.00000225177368
100.00000053118109
100.00000014093078
100.00000005405069
100.00000003914285
100.00000005525301
100.00000014389954
100.00000053681485
100.00000226091254
100.00000982080017
100.00004296674213
100.00018829096382
100.00082544420003
100.00361895378245
100.01586669850765
100.06956521045217
100.3049981490105
101.33722184708408
105.86285363872113
125.7048506591584
125.70486658601087
105.86285125548271
101.33722357652644
100.30499832607646
100.06956513951984
100.01586665123234
100.00361893661376
100.00082543958047
100.00018829727033
100.00004298985007
100.00000986216072
100.00000231948297
100.0000006089149
100.00000022478638
100.00000014093101
100.00000012729119
100.00000014389985
100.0000002327903
100.0000006258865
100.00000235014704
100.00000991019544
100.00004305629987
100.00018838079426
100.00082553384995
100.00361904241538
100.01586678690191
100.06956524377678
100.30499872003057
101.33722107863073
105.86285625296426
125.7048544032841
125.70484614094212
105.8628590300181
101.33722511386895
100.30499794106284
100.0695651876287
100.01586667097473
100.00361899636562
100.00082553953035
100.0001884575465
100.00004321600142
100.00001015127889
100.00000265782052
100.00000097791623
100.00000060891539
100.00000053118004
100.00000051959621
100.00000053681502
100.00000062588661
100.00000101905319
100.00000274335426
100.00001030342987
100.00004344955008
100.0001887738949
100.00082592825416
100.00361944112983
100.01586720321986
100.06956563736904
100.30499908831266
101.33722233364281
105.86285826544317
125.70485813927439
125.70485809962058
105.86286531301106
101.33722071278207
100.30499815177559
100.0695651456065
100.01586690676481
100.00361937999446
100.00082615766644
100.0001893698911
100.00004442420455
100.0000116007328
100.00000426139957
100.00000265782003
100.00000231948586
100.00000225177834
100.00000224299586
100.00000226091446
100.0000023501512
100.00000274335805
100.00000446767395
100.00001202775945
100.0000451738964
100.00019049807403
100.00082765166913
100.00362116143086
100.01586889722977
100.06956740075714
100.30500036282602
101.33722317232362
105.86285655693125
125.70485623427169
125.70485387929476
105.86286667194618
101.33721824812554
100.30499890701678
100.06956581813522
100.01586824028149
100.00362169553496
100.00082977657016
100.00019436869283
100.00005060141078
100.00001855434795
100.00001160073026
100.00001015129455
100.00000986217128
100.00000980777715
100.00000980219323
100.00000982081824
100.00000991019782
100.00001030343384
100.00001202775665
100.00001958784392
100.00005273394557
100.00019805841669
100.00083521287667
100.0036287261451
100.01587645602513
100.06957495854914
100.30500811008585
101.3372315140747
105.86287027163876
125.70487037613448
125.7048399483783
105.86283853198181
101.33722092136775
100.30500037203417
100.0695704288602
100.01587677680429
100.00363576913142
100.00085021083142
100.0002205431668
100.00008069623205
100.00005060141123
100.00004442418435
100.00004321589529
100.00004298981004
100.00004295000198
100.00004294751292
100.00004296676066
100.00004305626092
100.00004344951367
100.00004517384446
100.00005273393944
100.00008588003656
100.00023120447915
100.0008683588783
100.00366186933562
100.01590963084901
100.06960809287251
100.3050415539706
101.33726658725952
105.86291111641295
125.7049456473847
125.70487285446835
105.86285584079329
101.33723254185482
100.30501558498703
100.06960062301522
100.01593016198467
100.00371804916736
100.00096031749281
100.00035049735843
100.00022054400196
100.00019436887433
100.00018937025841
100.00018845822223
100.0001882980556
100.00018827177801
100.00018827193858
100.00018829159929
100.0001883811739
100.00018877446111
100.00019049881783
100.00019805889244
100.00023120498344
100.00037652943138
100.0010136838666
100.0038071903699
100.0160549430821
100.06975343946753
100.3051871274179
101.33741384037361
105.86306470676898
125.70520506088404
125.70485725980188
105.86288209181555
101.33727372286384
100.30511711079446
100.06979686679293
100.01625486656283
100.00417677634685
100.00151995018614
100.00096031610195
100.00085021232736
100.00082977848349
100.0008261602168
100.0008255426524
100.00082544011725
100.00082542448808
100.0008254266544
100.0008254467114
100.00082553623598
100.00082592956247
100.00082765383866
100.00083521388545
100.00086836013551
100.00101368507735
100.00165084080533
100.00444436485319
100.01669216715635
100.0703910675484
100.30582700031746
101.33806664167106
105.8638054175648
125.70643490101571
125.70490334607294
105.86301508233014
101.3375938463437
100.30580708896618
100.07104443561998
100.01814147245163
100.0065789889241
100.00417677341757
100.00371805017755
100.00363578022227
100.00362170351427
100.0036193771989
100.00361900184568
100.00361894341374
100.0036189362122
100.00361893840355
100.00361895847622
100.00361904845686
100.00361944230904
100.00362116651517
100.00362872620003
100.00366187311921
100.00380720023139
100.00444436721313
100.00723794803498
100.01948606002841
100.07318663883984
100.30863223445287
101.34092881083525
105.86701369391358
125.71179455180983
125.70521835966476
105.86392959140005
101.33988036492391
100.31042712318084
100.07866350514556
100.02841311441921
100.01814146715056
100.01625487664268
100.0159301649075
100.01587675619838
100.01586824221114
100.01586691829006
100.01586671038734
100.01586667835981
100.01586667771994
100.01586668191665
100.01586670023345
100.0158667909652
100.0158671827907
100.01586890630351
100.01587646856633
100.0159096210649
100.01605496036241
100.0166921882525
100.01948606452144
100.03173568057967
100.08544417648386
100.3209337195941
101.3534866761621
105.88111281895783
125.73535519357505
125.70763276049291
105.87086355970473
101.35608123860062
100.34037733084101
100.12238562002226
100.0786635391172
100.07104441357117
100.0697966531058
100.06960050813744
100.06957041250547
100.06956588319197
100.06956519798621
100.06956510522114
100.06956510898605
100.06956508688297
100.06956508853581
100.06956511678273
100.06956521511077
100.06956560508286
100.06956732099232
100.06957489165207
100.06960805471707
100.0697534769213
100.07039106304637
100.0731865812673
100.08544409386334
100.13919195323724
100.37488866644483
101.40860264056174
105.94308315125456
125.83908178748386
125.72596006960009
105.92310523698546
101.4688536423004
100.52552636015189
100.34037857862977
100.31042737201493
100.30580783705346
100.30511790768247
100.30501643501556
100.30500171808367
100.30499969286582
100.30499928693993
100.30499921945325
100.30499926447003
100.30499926925069
100.30499925053493
100.30499927789995
100.30499933432635
100.30499971100781
100.30500148264737
100.30500912654863
100.30504236837518
100.3051882214145
100.30582792592763
100.30863297556265
100.32093433820506
100.37488941085729
100.61160714263706
101.65071024152284
106.21580111228296
126.29636480872325
125.87165037826166
106.3160542821319
102.24853941013191
101.4688514712107
101.35608375161794
101.33988350710074
101.3375983615426
101.33727718020855
101.33723158532749
101.33722551886399
101.33722429761394
101.33722434080913
101.33722463615558
101.33722420261974
101.33722427774026
101.33722435453045
101.33722451291483
101.33722451702252
101.33722482603886
101.33722671701767
101.33723430003931
101.33726832148496
101.3374171231568
101.33806950135954
101.34093160797497
101.35348842446467
101.40860458639227
101.65071286901794
102.7155347893553
107.41891894077382
128.30799170483377
127.0265281791012
109.5823660587165
106.31605321971338
105.9231029801202
105.8708797770932
105.86394608967137
105.86301038470435
105.86288118786173
105.86286598875508
105.86286462218982
105.8628627335748
105.86286204405512
105.86286261507755
105.86286366292094
105.86286273592488
105.86286276197096
105.86286185153483
105.86286215634722
105.86286359446594
105.86286608968696
105.86287429510902
105.86291147547283
105.86307866399659
105.86381008304048
105.8670201235131
105.88111678130522
105.94308481725177
106.21581310372973
107.41892267001657
112.70348728622221
137.21843152080532
140.66767009224844
127.026521435304
125.87164708924803
125.72595974873008
125.70763101937033
125.70522641935962
125.704905520992
125.70486576337709
125.70485734311406
125.70485312907536
125.70485568515129
125.70485732771982
125.7048561637066
125.70485447093195
125.7048558730427
125.70485564286807
125.70485722726725
125.70485774203408
125.704857132871
125.70485876632054
125.7048737503391
125.70493872833742
125.70521598391156
125.70643609319109
125.71179451312415
125.73535688067348
125.8390776224998
126.29637273436487
128.3079900952669
137.2184251296436
166.93559345239035
