# vtk DataFile Version 2.0
Unstructured Grid Example
ASCII
DATASET UNSTRUCTURED_GRID

POINTS 961 float
0.150000006 -0.00839745998 0
0.146666661 -0.00839745998 0
0.143333331 -0.00839745998 0
0.140000001 -0.00839745998 0
0.13666667 -0.00839745998 0
0.13333334 -0.00839745998 0
0.129999995 -0.00839745998 0
0.126666665 -0.00839745998 0
0.123333335 -0.00839745998 0
0.119999997 -0.00839745998 0
0.116666667 -0.00839745998 0
0.113333337 -0.00839745998 0
0.109999999 -0.00839745998 0
0.106666669 -0.00839745998 0
0.103333332 -0.00839745998 0
0.100000001 -0.00839745998 0
0.0966666639 -0.00839745998 0
0.0933333337 -0.00839745998 0
0.0900000036 -0.00839745998 0
0.086666666 -0.00839745998 0
0.0833333358 -0.00839745998 0
0.0799999982 -0.00839745998 0
0.0766666681 -0.00839745998 0
0.0733333305 -0.00839745998 0
0.0700000003 -0.00839745998 0
0.0666666701 -0.00839745998 0
0.0633333325 -0.00839745998 0
0.0599999987 -0.00839745998 0
0.0566666685 -0.00839745998 0
0.0533333346 -0.00839745998 0
0.0500000007 -0.00839745998 0
0.148333326 -0.0112842107 0
0.144999996 -0.0112842107 0
0.141666666 -0.0112842107 0
0.138333336 -0.0112842107 0
0.135000005 -0.0112842107 0
0.13166666 -0.0112842107 0
0.12833333 -0.0112842107 0
0.125 -0.0112842107 0
0.12166667 -0.0112842107 0
0.118333332 -0.0112842107 0
0.115000002 -0.0112842107 0
0.111666664 -0.0112842107 0
0.108333334 -0.0112842107 0
0.104999997 -0.0112842107 0
0.101666667 -0.0112842107 0
0.0983333364 -0.0112842107 0
0.0949999988 -0.0112842107 0
0.0916666687 -0.0112842107 0
0.088333331 -0.0112842107 0
0.0850000009 -0.0112842107 0
0.0816666633 -0.0112842107 0
0.0783333331 -0.0112842107 0
0.075000003 -0.0112842107 0
0.0716666654 -0.0112842107 0
0.0683333352 -0.0112842107 0
0.0649999976 -0.0112842107 0
0.0616666675 -0.0112842107 0
0.0583333336 -0.0112842107 0
0.0549999997 -0.0112842107 0
0.0516666658 -0.0112842107 0
0.0483333319 -0.0112842107 0
0.146666661 -0.0141709624 0
0.143333331 -0.0141709624 0
0.140000001 -0.0141709624 0
0.13666667 -0.0141709624 0
0.13333334 -0.0141709624 0
0.129999995 -0.0141709624 0
0.126666665 -0.0141709624 0
0.123333335 -0.0141709624 0
0.119999997 -0.0141709624 0
0.116666667 -0.0141709624 0
0.113333337 -0.0141709624 0
0.109999999 -0.0141709624 0
0.106666669 -0.0141709624 0
0.103333332 -0.0141709624 0
0.100000001 -0.0141709624 0
0.0966666639 -0.0141709624 0
0.0933333337 -0.0141709624 0
0.0900000036 -0.0141709624 0
0.086666666 -0.0141709624 0
0.0833333358 -0.0141709624 0
0.0799999982 -0.0141709624 0
0.0766666681 -0.0141709624 0
0.0733333305 -0.0141709624 0
0.0700000003 -0.0141709624 0
0.0666666701 -0.0141709624 0
0.0633333325 -0.0141709624 0
0.0599999987 -0.0141709624 0
0.0566666685 -0.0141709624 0
0.0533333346 -0.0141709624 0
0.0500000007 -0.0141709624 0
0.0466666669 -0.0141709624 0
0.144999996 -0.0170577131 0
0.141666666 -0.0170577131 0
0.138333336 -0.0170577131 0
0.135000005 -0.0170577131 0
0.13166666 -0.0170577131 0
0.12833333 -0.0170577131 0
0.125 -0.0170577131 0
0.12166667 -0.0170577131 0
0.118333332 -0.0170577131 0
0.115000002 -0.0170577131 0
0.111666664 -0.0170577131 0
0.108333334 -0.0170577131 0
0.104999997 -0.0170577131 0
0.101666667 -0.0170577131 0
0.0983333364 -0.0170577131 0
0.0949999988 -0.0170577131 0
0.0916666687 -0.0170577131 0
0.088333331 -0.0170577131 0
0.0850000009 -0.0170577131 0
0.0816666633 -0.0170577131 0
0.0783333331 -0.0170577131 0
0.075000003 -0.0170577131 0
0.0716666654 -0.0170577131 0
0.0683333352 -0.0170577131 0
0.0649999976 -0.0170577131 0
0.0616666675 -0.0170577131 0
0.0583333336 -0.0170577131 0
0.0549999997 -0.0170577131 0
0.0516666658 -0.0170577131 0
0.0483333319 -0.0170577131 0
0.0450000018 -0.0170577131 0
0.143333331 -0.0199444648 0
0.140000001 -0.0199444648 0
0.13666667 -0.0199444648 0
0.13333334 -0.0199444648 0
0.129999995 -0.0199444648 0
0.126666665 -0.0199444648 0
0.123333335 -0.0199444648 0
0.119999997 -0.0199444648 0
0.116666667 -0.0199444648 0
0.113333337 -0.0199444648 0
0.109999999 -0.0199444648 0
0.106666669 -0.0199444648 0
0.103333332 -0.0199444648 0
0.100000001 -0.0199444648 0
0.0966666639 -0.0199444648 0
0.0933333337 -0.0199444648 0
0.0900000036 -0.0199444648 0
0.086666666 -0.0199444648 0
0.0833333358 -0.0199444648 0
0.0799999982 -0.0199444648 0
0.0766666681 -0.0199444648 0
0.0733333305 -0.0199444648 0
0.0700000003 -0.0199444648 0
0.0666666701 -0.0199444648 0
0.0633333325 -0.0199444648 0
0.0599999987 -0.0199444648 0
0.0566666685 -0.0199444648 0
0.0533333346 -0.0199444648 0
0.0500000007 -0.0199444648 0
0.0466666669 -0.0199444648 0
0.043333333 -0.0199444648 0
0.141666666 -0.0228312165 0
0.138333336 -0.0228312165 0
0.135000005 -0.0228312165 0
0.13166666 -0.0228312165 0
0.12833333 -0.0228312165 0
0.125 -0.0228312165 0
0.12166667 -0.0228312165 0
0.118333332 -0.0228312165 0
0.115000002 -0.0228312165 0
0.111666664 -0.0228312165 0
0.108333334 -0.0228312165 0
0.104999997 -0.0228312165 0
0.101666667 -0.0228312165 0
0.0983333364 -0.0228312165 0
0.0949999988 -0.0228312165 0
0.0916666687 -0.0228312165 0
0.088333331 -0.0228312165 0
0.0850000009 -0.0228312165 0
0.0816666633 -0.0228312165 0
0.0783333331 -0.0228312165 0
0.075000003 -0.0228312165 0
0.0716666654 -0.0228312165 0
0.0683333352 -0.0228312165 0
0.0649999976 -0.0228312165 0
0.0616666675 -0.0228312165 0
0.0583333336 -0.0228312165 0
0.0549999997 -0.0228312165 0
0.0516666658 -0.0228312165 0
0.0483333319 -0.0228312165 0
0.0450000018 -0.0228312165 0
0.0416666679 -0.0228312165 0
0.140000001 -0.0257179681 0
0.13666667 -0.0257179681 0
0.13333334 -0.0257179681 0
0.129999995 -0.0257179681 0
0.126666665 -0.0257179681 0
0.123333335 -0.0257179681 0
0.119999997 -0.0257179681 0
0.116666667 -0.0257179681 0
0.113333337 -0.0257179681 0
0.109999999 -0.0257179681 0
0.106666669 -0.0257179681 0
0.103333332 -0.0257179681 0
0.100000001 -0.0257179681 0
0.0966666639 -0.0257179681 0
0.0933333337 -0.0257179681 0
0.0900000036 -0.0257179681 0
0.086666666 -0.0257179681 0
0.0833333358 -0.0257179681 0
0.0799999982 -0.0257179681 0
0.0766666681 -0.0257179681 0
0.0733333305 -0.0257179681 0
0.0700000003 -0.0257179681 0
0.0666666701 -0.0257179681 0
0.0633333325 -0.0257179681 0
0.0599999987 -0.0257179681 0
0.0566666685 -0.0257179681 0
0.0533333346 -0.0257179681 0
0.0500000007 -0.0257179681 0
0.0466666669 -0.0257179681 0
0.043333333 -0.0257179681 0
0.0399999991 -0.0257179681 0
0.138333336 -0.0286047198 0
0.135000005 -0.0286047198 0
0.13166666 -0.0286047198 0
0.12833333 -0.0286047198 0
0.125 -0.0286047198 0
0.12166667 -0.0286047198 0
0.118333332 -0.0286047198 0
0.115000002 -0.0286047198 0
0.111666664 -0.0286047198 0
0.108333334 -0.0286047198 0
0.104999997 -0.0286047198 0
0.101666667 -0.0286047198 0
0.0983333364 -0.0286047198 0
0.0949999988 -0.0286047198 0
0.0916666687 -0.0286047198 0
0.088333331 -0.0286047198 0
0.0850000009 -0.0286047198 0
0.0816666633 -0.0286047198 0
0.0783333331 -0.0286047198 0
0.075000003 -0.0286047198 0
0.0716666654 -0.0286047198 0
0.0683333352 -0.0286047198 0
0.0649999976 -0.0286047198 0
0.0616666675 -0.0286047198 0
0.0583333336 -0.0286047198 0
0.0549999997 -0.0286047198 0
0.0516666658 -0.0286047198 0
0.0483333319 -0.0286047198 0
0.0450000018 -0.0286047198 0
0.0416666679 -0.0286047198 0
0.038333334 -0.0286047198 0
0.13666667 -0.0314914696 0
0.13333334 -0.0314914696 0
0.129999995 -0.0314914696 0
0.126666665 -0.0314914696 0
0.123333335 -0.0314914696 0
0.119999997 -0.0314914696 0
0.116666667 -0.0314914696 0
0.113333337 -0.0314914696 0
0.109999999 -0.0314914696 0
0.106666669 -0.0314914696 0
0.103333332 -0.0314914696 0
0.100000001 -0.0314914696 0
0.0966666639 -0.0314914696 0
0.0933333337 -0.0314914696 0
0.0900000036 -0.0314914696 0
0.086666666 -0.0314914696 0
0.0833333358 -0.0314914696 0
0.0799999982 -0.0314914696 0
0.0766666681 -0.0314914696 0
0.0733333305 -0.0314914696 0
0.0700000003 -0.0314914696 0
0.0666666701 -0.0314914696 0
0.0633333325 -0.0314914696 0
0.0599999987 -0.0314914696 0
0.0566666685 -0.0314914696 0
0.0533333346 -0.0314914696 0
0.0500000007 -0.0314914696 0
0.0466666669 -0.0314914696 0
0.043333333 -0.0314914696 0
0.0399999991 -0.0314914696 0
0.0366666652 -0.0314914696 0
0.135000005 -0.0343782231 0
0.13166666 -0.0343782231 0
0.12833333 -0.0343782231 0
0.125 -0.0343782231 0
0.12166667 -0.0343782231 0
0.118333332 -0.0343782231 0
0.115000002 -0.0343782231 0
0.111666664 -0.0343782231 0
0.108333334 -0.0343782231 0
0.104999997 -0.0343782231 0
0.101666667 -0.0343782231 0
0.0983333364 -0.0343782231 0
0.0949999988 -0.0343782231 0
0.0916666687 -0.0343782231 0
0.088333331 -0.0343782231 0
0.0850000009 -0.0343782231 0
0.0816666633 -0.0343782231 0
0.0783333331 -0.0343782231 0
0.075000003 -0.0343782231 0
0.0716666654 -0.0343782231 0
0.0683333352 -0.0343782231 0
0.0649999976 -0.0343782231 0
0.0616666675 -0.0343782231 0
0.0583333336 -0.0343782231 0
0.0549999997 -0.0343782231 0
0.0516666658 -0.0343782231 0
0.0483333319 -0.0343782231 0
0.0450000018 -0.0343782231 0
0.0416666679 -0.0343782231 0
0.038333334 -0.0343782231 0
0.0350000001 -0.0343782231 0
0.13333334 -0.0372649729 0
0.129999995 -0.0372649729 0
0.126666665 -0.0372649729 0
0.123333335 -0.0372649729 0
0.119999997 -0.0372649729 0
0.116666667 -0.0372649729 0
0.113333337 -0.0372649729 0
0.109999999 -0.0372649729 0
0.106666669 -0.0372649729 0
0.103333332 -0.0372649729 0
0.100000001 -0.0372649729 0
0.0966666639 -0.0372649729 0
0.0933333337 -0.0372649729 0
0.0900000036 -0.0372649729 0
0.086666666 -0.0372649729 0
0.0833333358 -0.0372649729 0
0.0799999982 -0.0372649729 0
0.0766666681 -0.0372649729 0
0.0733333305 -0.0372649729 0
0.0700000003 -0.0372649729 0
0.0666666701 -0.0372649729 0
0.0633333325 -0.0372649729 0
0.0599999987 -0.0372649729 0
0.0566666685 -0.0372649729 0
0.0533333346 -0.0372649729 0
0.0500000007 -0.0372649729 0
0.0466666669 -0.0372649729 0
0.043333333 -0.0372649729 0
0.0399999991 -0.0372649729 0
0.0366666652 -0.0372649729 0
0.0333333351 -0.0372649729 0
0.13166666 -0.0401517227 0
0.12833333 -0.0401517227 0
0.125 -0.0401517227 0
0.12166667 -0.0401517227 0
0.118333332 -0.0401517227 0
0.115000002 -0.0401517227 0
0.111666664 -0.0401517227 0
[...]
POINT_DATA 961
SCALARS Temp float 1
LOOKUP_TABLE default
437.1498480774515
389.5698097509468
348.80252478375223
315.62210752582973
289.6357115023092
270.03855354503656
255.80390937983353
245.84171842722563
239.1203600410866
234.74548642972633
231.99593441738276
230.32565870023316
229.34388184587053
228.78495757623583
228.47672648741658
228.31273095415398
228.230618854302
228.1972089732325
228.19985481124033
228.2436750623409
228.35470696595783
228.5895103537707
229.0519115431272
229.91685958683829
231.45930271075352
234.08289914335728
238.3396798720006
244.92992312801695
254.67453520400497
268.4657261527244
287.43191692588755
389.56982401335335
343.2487793377941
304.912176518316
274.26659704110006
250.66661821541163
233.15717257308614
220.63951301814538
212.0129841164289
206.27889702623435
202.59978528645553
200.31908411280884
198.95170085106085
198.15800444274805
197.71165287851116
197.46871551004514
197.34200156555227
197.28206123944065
197.26487548392865
197.28576968848103
197.35933658945217
197.5256558892181
197.863495009378
198.51095911819436
199.69269817320443
201.75014165389766
205.167612909935
210.58380911378248
218.77778831599028
230.62265553876907
247.01642717051914
268.4657458919408
348.80247824157766
304.9121545285193
269.0575911291358
240.77373218799426
219.2481000194285
203.44777253237828
192.26102809937322
184.61867595753256
179.57812730432485
176.36615149374364
174.38694213253865
173.2064844237625
172.5244140279179
172.1425257590442
171.93596971148256
171.8300878570759
171.7838705517096
171.77990617263262
171.82051213659693
171.93007635381204
172.16408303503147
172.62547185757165
173.48831324165886
175.0268424882719
177.6447891221674
181.8961238767472
188.48568789721028
198.2383533390985
212.02760393063696
230.62264626023156
254.67454587220956
315.62204870556235
274.2665646691877
240.77373214564435
214.55700016938343
194.73424904262106
180.26039585202176
170.0545675603998
163.1033465067634
158.52806082307075
155.61610713466195
153.8226562941067
152.75291123899387
152.13455227230727
151.7883209154886
151.6016398029967
151.50778736961016
151.47140555454038
151.48030679827053
151.54349353940825
151.69561114152623
152.00839523118904
152.60953305746241
153.70822657381578
155.62439781238604
158.8150656768039
163.88780775498435
171.58952234877853
182.7594028628064
198.23836945355174
218.77780151175077
244.92991462503159
289.63565614562725
250.66658758331775
219.2480826513273
194.7343214876089
176.23603579010222
162.74094243578887
153.22430557553386
146.73669665830667
142.46009985083597
139.7328318475833
138.04924510346612
137.04254509893298
136.45925500027022
136.13221434826602
135.95644879564875
135.87025634888042
135.8423145620631
135.86497459506614
135.95385000087933
136.1540437759072
136.5535118588768
137.30360833781828
138.64535242313698
140.93736134682223
144.67792076468743
150.51073409654472
159.2032030665833
171.58951530023222
188.48568300546265
210.583807631539
238.33968557652634
270.0384971220823
233.15721136428877
203.4478235659096
180.26036333489446
162.74092958484334
149.93427809224957
140.88029425901257
134.6903973119775
130.59763608245322
127.97952574212819
126.35842903313076
125.3863265859496
124.82173962033056
124.50490090915159
124.3354541771689
124.25497411014767
124.23528131591097
124.27290568364766
124.38993334995898
124.64162324531276
125.13111730647556
126.0308345247283
127.60843029245392
130.25249276959434
134.48993636897444
140.98507530388858
150.51073071540551
163.8878091521034
181.89613078553188
205.16759129244258
234.08289379984504
255.80392000774427
220.63953787486838
192.26107678555394
170.05452920955915
153.2242898694531
140.88028995038368
132.12364846027873
126.1171294091488
122.13306209878888
119.57702513692442
117.99017678978049
117.03643431792743
116.48159774746107
116.17027709325697
116.004933853994
115.92942428853902
115.91820822308657
115.97170305055808
116.11809569911665
116.42194502705289
116.99966860819616
118.04108363124482
119.83438021846729
122.78922439543894
127.45001272266484
134.4899322702539
144.67791228862401
158.81505348099623
177.64478809205085
201.75013979548677
231.45931127539808
245.84173458481317
212.01301215556916
184.61861739703528
163.10331190226339
146.73669682538218
134.69040960157582
126.11712629595253
120.21913513398928
116.29691421168815
113.77491231300316
112.20620068821174
111.26193556541833
110.71215839852158
110.40403157602042
110.24179327603376
110.17101498244675
110.16845537272721
110.23806621916074
110.4134879140571
110.7672621100654
111.42661543270256
112.59466720210555
114.57410485625095
117.78786606855795
122.78922201244256
130.25248927731414
140.93736354771892
155.62439923027347
175.02682759794348
199.69267872123348
229.91684935804804
239.12036830597816
206.27893139607318
179.57808274439782
158.52804295096217
142.46010269085943
130.59762503440624
122.13305908790679
116.29692317091845
112.4086535284404
109.90468256634003
108.34529695829609
107.40584341397418
106.85877057972552
106.55273694727519
106.39316665940036
106.32699869393895
106.33298611698119
106.4181573620685
106.62074431249758
107.01968989317447
107.75039449169563
109.02534959582692
111.15651884481973
114.57410714753044
119.83438120846202
127.60842985165306
138.6453510234384
153.70822222677987
173.4883168640924
198.51096641408503
229.05193052564664
234.7455253564173
202.5997208730737
176.36612760664073
155.61610299415804
139.7328446130445
127.979524608031
119.57703146994281
113.77490996069228
109.90468072451456
107.40998408484846
105.85530543029196
104.91832171031014
104.37282915416067
104.0683869179258
103.91126475320752
103.84951586955845
103.8635721483074
103.96299764051304
104.1896486052562
104.62725209352229
105.41693392695235
106.77722313722364
109.02534788418168
112.59466688573895
118.04108322602228
126.0308336793945
137.30360765865652
152.60951499940134
172.6254568497727
197.86347804753674
228.58950198682095
231.9959952073927
200.31903323078382
174.38692820786542
153.82266242862744
138.0492335361555
126.35843022488089
117.99018511419843
112.20620115895528
108.3452992512724
105.85530519996723
104.30302688651295
103.36741101051841
102.82300715155024
102.5199375222201
102.36510282869399
102.30745240288852
102.32876880590716
102.4405843881321
102.68743057415604
103.15635655224708
103.99218070078302
105.4169360524983
107.7503950396005
111.42661388519389
116.99966616737207
125.13111604686603
136.55350890281352
152.00839329472743
172.16408841673476
197.52566437302812
228.3546937732938
230.32559765662666
198.95166736429962
173.20648177648246
152.75292385479196
137.04253511071357
125.38633130289406
117.03642909804219
111.26193663960572
107.405839333806
104.9183216215946
103.367412722108
102.43273744834114
101.88926733838896
101.58749567859545
101.43479777064488
101.38081864961234
101.40837059433183
101.53042055307799
101.79334286453059
102.28632544642701
103.1563582043144
104.62725325897985
107.01968910643966
110.76726557359146
116.42194969521748
124.64163076889075
136.15403854257102
151.69560491803463
171.9300777637503
197.35933863793437
228.2436890493661
229.3438519810688
198.15799728082126
172.52443097752706
152.13453759721304
136.4592570445991
124.82175315343703
116.48159656735938
110.7121630304407
106.85876873007675
104.37283061250777
102.82300618966343
101.88926675412034
101.34680998297668
101.04637837628661
100.89569529882989
100.8449244256037
100.87762016205359
101.00773268625582
101.2828204681671
101.79334145775567
102.68743013292652
104.1896502548056
106.62074135032454
110.4134868245927
116.11809392250944
124.38993079714032
135.95384821032906
151.5434919116436
171.82051904316378
197.2857468573055
228.19985875175246
228.78493327324318
197.71165070904505
172.1425488966934
151.78830796137703
136.13221856534906
124.50489210201944
116.1702778135002
110.40402781632565
106.55273572554236
104.06838909308303
102.5199363824172
101.58749569942567
101.04637822923688
100.74748632922041
100.59878751219694
100.55081861673239
100.58764541677542
100.72385832541845
101.00773246621272
101.53042094098475
102.44058427343153
103.96299867434453
106.41815708930955
110.23806907822726
115.97170783028878
124.27290200440686
135.86497004040928
151.4803015946104
171.7799076528038
197.26487925587986
228.19720809583546
228.47672460724394
197.46873418600777
171.93595515931213
151.60164041735737
135.9564656246454
124.3354523605806
116.00494106337322
110.2417924995388
106.39316660208111
103.91126428878547
102.36510284163805
101.4347981897385
100.8956951408331
100.59878770245726
100.45221881010058
100.40679475258524
100.44693595172423
100.58764527033736
100.87761979333533
101.40837011992238
102.32876885090512
103.86357143356764
106.33298329535882
110.16845438512917
115.91820643222272
124.23528017856351
135.84231366922023
151.47140519232155
171.7838539785146
197.282057347472
228.2306103961797
228.31273134476427
197.34202380552787
171.83007516910217
151.50779103242002
135.87024355977243
124.25497406559316
115.92941789206873
110.171015455241
106.32700016717695
103.84951545628445
102.30745264128413
101.38081763609543
100.84492449715562
100.55081834928623
100.40679475977423
100.36388667424734
100.40679483539814
100.55081845951575
100.8449248655258
101.38081808950174
102.30745213625843
103.84951699124211
106.32699868363613
110.17101828921557
115.92942152907695
124.25497087758222
135.8702533219926
151.5077827951671
171.83009234286845
197.34199157921842
228.3127328278269
228.2306410311532
197.2820379996827
171.78387763697654
151.47142567235636
135.84231105106085
124.23529061265326
115.91820687092526
110.16845832645376
106.33298331515094
103.86357334306769
102.32877025687789
101.40837013475794
100.87762072714514
100.58764536495033
100.44693602977226
100.40679489226565
100.45221893079538
100.598787373302
100.89569530570563
101.43479749960206
102.36510179844524
103.91126434084035
106.39316401735053
110.24179207980224
116.00493338577222
124.3354538482631
135.95644928702694
151.60162055155132
171.93596677202748
197.46869870390555
228.47671856477817
228.1972406836989
197.2648580210386
171.7799175216078
151.48028772502175
135.86497372188182
124.27289625707226
115.97170334818186
110.23807110418987
106.41815459819081
103.96299944131772
102.44058349857382
101.53042031340117
101.00773225496314
100.72385817009273
100.58764554856667
100.55081864957953
100.59878755754146
100.74748653026666
101.0463784720044
101.58749536597438
102.51993727002645
104.06838802518315
106.55273740591815
110.40402994299791
116.17027510205192
124.50489837393485
136.132210960547
151.78831890475146
172.14251729446667
197.71164435295628
228.78495880767213
228.19982184479218
197.28575939342542
171.82052976672242
151.54347621050445
135.95385304003946
124.38992465611868
116.11809500976588
110.41348364273578
106.62074224250733
104.18965114737706
102.68742927042256
101.79334247127034
101.28282023213546
101.00773252339064
100.87762013743425
100.8449244146636
100.8956951590707
101.04637854785138
101.34680974654518
101.88926648815337
102.82300683218816
104.37283001698424
106.85877013530164
110.71216036929602
116.48160146893508
124.82174650372475
136.4592491946065
152.1345555136768
172.52441336535816
198.158004667477
229.34389254934666
228.24366773314867
197.3593496737583
171.9300584684744
151.69560880965471
136.15403003632724
124.64162416564383
116.42195247884146
110.76726181688763
107.01969029358251
104.6272520455661
103.15635721227477
102.28632508734223
101.79334257888746
101.53042084966832
101.40837061970154
101.38081865355463
101.43479786810025
101.5874957897765
101.88926712243646
102.43273793753607
103.36741198909178
104.9183225917752
107.40584051234922
111.26193453329248
117.03643306061724
125.38632514397128
137.0425428111671
152.75289835208656
173.20647721246723
198.95169293307873
230.3256590242493
228.3547033574211
197.5256742440374
172.16406679862484
152.00839871958885
136.55350022421172
125.13111751634494
116.99966151760466
111.42661526743268
107.75039645435797
105.41693472885233
103.99218237422528
103.15635622116065
102.68743031868749
102.44058430991946
102.32876870897142
102.30745239082785
102.36510295623489
102.51993736622369
102.82300701345979
103.36741136304582
104.30302645914524
105.8553060105777
108.34529737107411
112.20620438260252
117.99018024613952
126.3584246650532
138.0492477514766
153.82265097470741
174.38694071877987
200.31908376263377
231.99593084016345
228.5895085181206
197.86345104165127
172.62546091078912
152.60950354527688
137.3035987723427
126.0308376035527
118.04107800923953
112.59466874391556
109.02534615483343
106.7772216980674
105.41693337858064
104.62725161709746
104.18964913724375
103.96299771822379
103.86357213834906
103.84951590962675
103.91126478320712
104.0683867910897
104.37282942532028
104.91832125667186
105.85530604867667
107.40998477108656
109.90467936713138
113.77491275497593
119.57702745005024
127.97953128281108
139.7328272910624
155.61610445433288
176.3661592410922
202.59979638096172
234.74550250820045
229.05195901278893
198.51095856945474
173.48833959936533
153.70822421338192
138.64536389132002
127.60843222497213
119.83439044763963
114.57411531822963
111.15652216912301
109.0253568990012
107.75039848064354
107.01969373265896
106.62074825572999
106.4181611593236
106.33299019691573
106.32700279398796
106.39317044683997
106.55274077235606
106.85877451581719
107.40584666969951
108.3453006962769
109.90468416336424
112.40865783729492
116.29692110596412
122.13305564660726
130.59763480595927
142.46009242837255
158.52805120754365
179.5781229586096
206.27886686905794
239.12034156708032
229.91684303407973
199.6927051498342
175.0268307309673
155.62440247521158
140.93738096894026
130.25249271014806
122.78923357305277
117.78787157609018
114.57411003056032
112.5946730917589
111.42662108755093
110.76726919706388
110.41349427691921
110.23807232820886
110.16846145246772
110.17102098808482
110.2417992172644
110.40403766662475
110.71216397624374
111.26194168114192
112.20620643220845
113.77491644670992
116.29692048150525
120.21913596250339
126.1171337230089
134.6903980604367
146.73669808591018
163.1033353586677
184.61867280508838
212.01297719229092
245.8417183834856
231.45929684612503
201.75015952146654
177.64478422548487
158.81506489884467
144.67791146923904
134.4899415739742
127.45002143958706
122.78922699570195
119.83438875606076
118.04108785418985
116.9996726798514
116.421949263112
116.1180997058249
115.97170765535614
115.91821284785485
115.92942855661327
116.00493834226205
116.17028159342274
116.48160186429226
117.03643887825501
117.99018024235858
119.57703059319445
122.13306367693013
126.11713089265352
132.1236599832626
140.8802874719026
153.22430228338817
170.05456692498373
192.26102378150978
220.63951181960522
255.8039219590349
234.08290205667106
205.16757599913473
181.89611866044348
163.88781690388706
150.51072317682016
140.98507953102504
134.489933846843
130.25249054632633
127.60842937840218
126.03083353262097
125.13111857566963
124.64162371963693
124.3899334605411
124.27290573486832
124.23528127354052
124.25497417686444
124.335454348904
124.50490089099912
124.8217401724983
125.38632689971897
126.35842879968487
127.97952739355128
130.5976346862326
134.69040134326679
140.8802853608454
149.9342796354893
162.74094890233073
180.2604076020878
203.44778798744767
233.15718424353
270.0384977117035
238.33968267688775
210.58378137497905
188.48567712178408
171.5894963306456
159.20319771772387
150.51072897312972
144.67790854895037
140.93735716834487
138.64534314363272
137.30359896833167
136.55350272831456
136.15403431140825
135.95384148523357
135.8649661370282
135.84230565103027
135.87024784351004
135.95644021382185
136.13220553537894
136.45924661822792
137.04253627734127
138.04923778864796
139.7328222179073
142.46009097344373
146.73669524418727
153.2242938929039
162.74094215236806
176.23605450387612
194.7342607734568
219.24803857678634
250.666558777709
289.6356506075446
244.92992792124417
218.77781700721448
198.2384064144187
182.7594208239494
171.58955270713102
163.8878291899271
158.81508687625455
155.62442005771402
153.70824843300673
152.60955769508567
152.00841889786363
151.69563424140563
151.54351648047884
151.48032957658896
151.47142856942457
151.50781038853455
151.60166271748207
151.78834427694102
152.13457510687059
152.75293369023697
153.82267970084982
155.6161277849053
158.52808427045284
163.1033587138907
170.05458530000774
180.2604239691752
194.7342919314969
214.55696616583796
240.77369330615548
274.2665344142771
315.6220521150889
254.67455713219138
230.62267971322643
212.02762035831472
198.2383830202809
188.48571650299095
181.89614347588062
177.6448173658185
175.02686467702037
173.4883351257703
172.62549384935045
172.16410443737033
171.93009889502366
171.8205347575429
171.77992825824498
171.7838931565064
171.83011025111526
171.93599183045728
172.14254809551392
172.52443600607762
173.20650710197305
174.3869625886046
176.3661720685704
179.57815205797075
184.61869040776267
192.26104858536524
203.4478036984742
219.2480561389214
240.77369262508276
269.05755052624403
304.9121193527154
348.80247352967456
268.46574887475055
247.0164506135923
230.6226581228978
218.7778040474922
210.5838155180774
205.1676192680165
201.75014924367287
199.6927055077189
198.51096983818107
197.86350465158196
197.52566475438624
197.35934531036506
197.28577824599816
197.2648844697486
197.28207015533476
197.34201046203475
197.46872485767923
197.71166162765638
198.15801317207408
198.95171036686702
200.31909154416002
202.59979484395834
206.278897585585
212.0129889087342
220.63952529046645
233.15719564398862
250.66657002056107
274.266537817898
304.91211174841425
343.2487184545163
389.5697270203326
287.43193325961795
268.4657204151853
254.67454246565183
244.92992941345216
238.33967646899524
234.08290489600316
231.45930201834395
229.91685962670573
229.0519116260128
228.58950891421176
228.35470708355535
228.2436751294862
228.19985476665934
228.19720928597022
228.23061892603482
228.31273097910326
228.4767261544477
228.78495760226394
229.34388220984883
230.32565723038908
231.9959332001038
234.7454889477641
239.12035422111407
245.84171689272313
255.80391495612903
270.03849166588105
289.6356528722996
315.62204106642633
348.8024491868728
389.5697093505471
437.14944059115913
