# vtk DataFile Version 2.0
Unstructured Grid Example
ASCII
DATASET UNSTRUCTURED_GRID

POINTS 961 float
0.400000004 0.01999999956 0
0.3866666556 0.01999999956 0
0.3733333348 0.01999999956 0
0.3600000144 0.01999999956 0
0.346666664 0.01999999956 0
0.3333333432 0.01999999956 0
0.3199999928 0.01999999956 0
0.3066666724 0.01999999956 0
0.293333322 0.01999999956 0
0.2800000012 0.01999999956 0
0.2666666804 0.01999999956 0
0.25333333 0.01999999956 0
0.2399999948 0.01999999956 0
0.226666674 0.01999999956 0
0.2133333384 0.01999999956 0
0.2000000028 0.01999999956 0
0.1866666676 0.01999999956 0
0.173333332 0.01999999956 0
0.1599999964 0.01999999956 0
0.1466666608 0.01999999956 0
0.1333333404 0.01999999956 0
0.1199999972 0.01999999956 0
0.1066666692 0.01999999956 0
0.0933333336 0.01999999956 0
0.0799999984 0.01999999956 0
0.06666667 0.01999999956 0
0.0533333348 0.01999999956 0
0.03999999912 0.01999999956 0
0.02666666732 0.01999999956 0
0.01333333364 0.01999999956 0
0.0 0.01999999956 0
0.400000004 0.00666666684 0
0.3866666556 0.00666666684 0
0.3733333348 0.00666666684 0
0.3600000144 0.00666666684 0
0.346666664 0.00666666684 0
0.3333333432 0.00666666684 0
0.3199999928 0.00666666684 0
0.3066666724 0.00666666684 0
0.293333322 0.00666666684 0
0.2800000012 0.00666666684 0
0.2666666804 0.00666666684 0
0.25333333 0.00666666684 0
0.2399999948 0.00666666684 0
0.226666674 0.00666666684 0
0.2133333384 0.00666666684 0
0.2000000028 0.00666666684 0
0.1866666676 0.00666666684 0
0.173333332 0.00666666684 0
0.1599999964 0.00666666684 0
0.1466666608 0.00666666684 0
0.1333333404 0.00666666684 0
0.1199999972 0.00666666684 0
0.1066666692 0.00666666684 0
0.0933333336 0.00666666684 0
0.0799999984 0.00666666684 0
0.06666667 0.00666666684 0
0.0533333348 0.00666666684 0
0.03999999912 0.00666666684 0
0.02666666732 0.00666666684 0
0.01333333364 0.00666666684 0
0.0 0.00666666684 0
0.400000004 -0.00666666684 0
0.3866666556 -0.00666666684 0
0.3733333348 -0.00666666684 0
0.3600000144 -0.00666666684 0
0.346666664 -0.00666666684 0
0.3333333432 -0.00666666684 0
0.3199999928 -0.00666666684 0
0.3066666724 -0.00666666684 0
0.293333322 -0.00666666684 0
0.2800000012 -0.00666666684 0
0.2666666804 -0.00666666684 0
0.25333333 -0.00666666684 0
0.2399999948 -0.00666666684 0
0.226666674 -0.00666666684 0
0.2133333384 -0.00666666684 0
0.2000000028 -0.00666666684 0
0.1866666676 -0.00666666684 0
0.173333332 -0.00666666684 0
0.1599999964 -0.00666666684 0
0.1466666608 -0.00666666684 0
0.1333333404 -0.00666666684 0
0.1199999972 -0.00666666684 0
0.1066666692 -0.00666666684 0
0.0933333336 -0.00666666684 0
0.0799999984 -0.00666666684 0
0.06666667 -0.00666666684 0
0.0533333348 -0.00666666684 0
0.03999999912 -0.00666666684 0
0.02666666732 -0.00666666684 0
0.01333333364 -0.00666666684 0
0.0 -0.00666666684 0
0.400000004 -0.01999999956 0
0.3866666556 -0.01999999956 0
0.3733333348 -0.01999999956 0
0.3600000144 -0.01999999956 0
0.346666664 -0.01999999956 0
0.3333333432 -0.01999999956 0
0.3199999928 -0.01999999956 0
0.3066666724 -0.01999999956 0
0.293333322 -0.01999999956 0
0.2800000012 -0.01999999956 0
0.2666666804 -0.01999999956 0
0.25333333 -0.01999999956 0
0.2399999948 -0.01999999956 0
0.226666674 -0.01999999956 0
0.2133333384 -0.01999999956 0
0.2000000028 -0.01999999956 0
0.1866666676 -0.01999999956 0
0.173333332 -0.01999999956 0
0.1599999964 -0.01999999956 0
0.1466666608 -0.01999999956 0
0.1333333404 -0.01999999956 0
0.1199999972 -0.01999999956 0
0.1066666692 -0.01999999956 0
0.0933333336 -0.01999999956 0
0.0799999984 -0.01999999956 0
0.06666667 -0.01999999956 0
0.0533333348 -0.01999999956 0
0.03999999912 -0.01999999956 0
0.02666666732 -0.01999999956 0
0.01333333364 -0.01999999956 0
0.0 -0.01999999956 0
0.400000004 -0.03333333508 0
0.3866666556 -0.03333333508 0
0.3733333348 -0.03333333508 0
0.3600000144 -0.03333333508 0
0.346666664 -0.03333333508 0
0.3333333432 -0.03333333508 0
0.3199999928 -0.03333333508 0
0.3066666724 -0.03333333508 0
0.293333322 -0.03333333508 0
0.2800000012 -0.03333333508 0
0.2666666804 -0.03333333508 0
0.25333333 -0.03333333508 0
0.2399999948 -0.03333333508 0
0.226666674 -0.03333333508 0
0.2133333384 -0.03333333508 0
0.2000000028 -0.03333333508 0
0.1866666676 -0.03333333508 0
0.173333332 -0.03333333508 0
0.1599999964 -0.03333333508 0
0.1466666608 -0.03333333508 0
0.1333333404 -0.03333333508 0
0.1199999972 -0.03333333508 0
0.1066666692 -0.03333333508 0
0.0933333336 -0.03333333508 0
0.0799999984 -0.03333333508 0
0.06666667 -0.03333333508 0
0.0533333348 -0.03333333508 0
0.03999999912 -0.03333333508 0
0.02666666732 -0.03333333508 0
0.01333333364 -0.03333333508 0
0.0 -0.03333333508 0
0.400000004 -0.0466666668 0
0.3866666556 -0.0466666668 0
0.3733333348 -0.0466666668 0
0.3600000144 -0.0466666668 0
0.346666664 -0.0466666668 0
0.3333333432 -0.0466666668 0
0.3199999928 -0.0466666668 0
0.3066666724 -0.0466666668 0
0.293333322 -0.0466666668 0
0.2800000012 -0.0466666668 0
0.2666666804 -0.0466666668 0
0.25333333 -0.0466666668 0
0.2399999948 -0.0466666668 0
0.226666674 -0.0466666668 0
0.2133333384 -0.0466666668 0
0.2000000028 -0.0466666668 0
0.1866666676 -0.0466666668 0
0.173333332 -0.0466666668 0
0.1599999964 -0.0466666668 0
0.1466666608 -0.0466666668 0
0.1333333404 -0.0466666668 0
0.1199999972 -0.0466666668 0
0.1066666692 -0.0466666668 0
0.0933333336 -0.0466666668 0
0.0799999984 -0.0466666668 0
0.06666667 -0.0466666668 0
0.0533333348 -0.0466666668 0
0.03999999912 -0.0466666668 0
0.02666666732 -0.0466666668 0
0.01333333364 -0.0466666668 0
0.0 -0.0466666668 0
0.400000004 -0.0599999988 0
0.3866666556 -0.0599999988 0
0.3733333348 -0.0599999988 0
0.3600000144 -0.0599999988 0
0.346666664 -0.0599999988 0
0.3333333432 -0.0599999988 0
0.3199999928 -0.0599999988 0
0.3066666724 -0.0599999988 0
0.293333322 -0.0599999988 0
0.2800000012 -0.0599999988 0
0.2666666804 -0.0599999988 0
0.25333333 -0.0599999988 0
0.2399999948 -0.0599999988 0
0.226666674 -0.0599999988 0
0.2133333384 -0.0599999988 0
0.2000000028 -0.0599999988 0
0.1866666676 -0.0599999988 0
0.173333332 -0.0599999988 0
0.1599999964 -0.0599999988 0
0.1466666608 -0.0599999988 0
0.1333333404 -0.0599999988 0
0.1199999972 -0.0599999988 0
0.1066666692 -0.0599999988 0
0.0933333336 -0.0599999988 0
0.0799999984 -0.0599999988 0
0.06666667 -0.0599999988 0
0.0533333348 -0.0599999988 0
0.03999999912 -0.0599999988 0
0.02666666732 -0.0599999988 0
0.01333333364 -0.0599999988 0
0.0 -0.0599999988 0
0.400000004 -0.0733333304 0
0.3866666556 -0.0733333304 0
0.3733333348 -0.0733333304 0
0.3600000144 -0.0733333304 0
0.346666664 -0.0733333304 0
0.3333333432 -0.0733333304 0
0.3199999928 -0.0733333304 0
0.3066666724 -0.0733333304 0
0.293333322 -0.0733333304 0
0.2800000012 -0.0733333304 0
0.2666666804 -0.0733333304 0
0.25333333 -0.0733333304 0
0.2399999948 -0.0733333304 0
0.226666674 -0.0733333304 0
0.2133333384 -0.0733333304 0
0.2000000028 -0.0733333304 0
0.1866666676 -0.0733333304 0
0.173333332 -0.0733333304 0
0.1599999964 -0.0733333304 0
0.1466666608 -0.0733333304 0
0.1333333404 -0.0733333304 0
0.1199999972 -0.0733333304 0
0.1066666692 -0.0733333304 0
0.0933333336 -0.0733333304 0
0.0799999984 -0.0733333304 0
0.06666667 -0.0733333304 0
0.0533333348 -0.0733333304 0
0.03999999912 -0.0733333304 0
0.02666666732 -0.0733333304 0
0.01333333364 -0.0733333304 0
0.0 -0.0733333304 0
0.400000004 -0.086666666 0
0.3866666556 -0.086666666 0
0.3733333348 -0.086666666 0
0.3600000144 -0.086666666 0
0.346666664 -0.086666666 0
0.3333333432 -0.086666666 0
0.3199999928 -0.086666666 0
0.3066666724 -0.086666666 0
0.293333322 -0.086666666 0
0.2800000012 -0.086666666 0
0.2666666804 -0.086666666 0
0.25333333 -0.086666666 0
0.2399999948 -0.086666666 0
0.226666674 -0.086666666 0
0.2133333384 -0.086666666 0
0.2000000028 -0.086666666 0
0.1866666676 -0.086666666 0
0.173333332 -0.086666666 0
0.1599999964 -0.086666666 0
0.1466666608 -0.086666666 0
0.1333333404 -0.086666666 0
0.1199999972 -0.086666666 0
0.1066666692 -0.086666666 0
0.0933333336 -0.086666666 0
0.0799999984 -0.086666666 0
0.06666667 -0.086666666 0
0.0533333348 -0.086666666 0
0.03999999912 -0.086666666 0
0.02666666732 -0.086666666 0
0.01333333364 -0.086666666 0
0.0 -0.086666666 0
0.400000004 -0.1000000016 0
0.3866666556 -0.1000000016 0
0.3733333348 -0.1000000016 0
0.3600000144 -0.1000000016 0
0.346666664 -0.1000000016 0
0.3333333432 -0.1000000016 0
0.3199999928 -0.1000000016 0
0.3066666724 -0.1000000016 0
0.293333322 -0.1000000016 0
0.2800000012 -0.1000000016 0
0.2666666804 -0.1000000016 0
0.25333333 -0.1000000016 0
0.2399999948 -0.1000000016 0
0.226666674 -0.1000000016 0
0.2133333384 -0.1000000016 0
0.2000000028 -0.1000000016 0
0.1866666676 -0.1000000016 0
0.173333332 -0.1000000016 0
0.1599999964 -0.1000000016 0
0.1466666608 -0.1000000016 0
0.1333333404 -0.1000000016 0
0.1199999972 -0.1000000016 0
0.1066666692 -0.1000000016 0
0.0933333336 -0.1000000016 0
0.0799999984 -0.1000000016 0
0.06666667 -0.1000000016 0
0.0533333348 -0.1000000016 0
0.03999999912 -0.1000000016 0
0.02666666732 -0.1000000016 0
0.01333333364 -0.1000000016 0
0.0 -0.1000000016 0
0.400000004 -0.1133333372 0
0.3866666556 -0.1133333372 0
0.3733333348 -0.1133333372 0
0.3600000144 -0.1133333372 0
0.346666664 -0.1133333372 0
0.3333333432 -0.1133333372 0
0.3199999928 -0.1133333372 0
0.3066666724 -0.1133333372 0
0.293333322 -0.1133333372 0
0.2800000012 -0.1133333372 0
0.2666666804 -0.1133333372 0
0.25333333 -0.1133333372 0
0.2399999948 -0.1133333372 0
0.226666674 -0.1133333372 0
0.2133333384 -0.1133333372 0
0.2000000028 -0.1133333372 0
0.1866666676 -0.1133333372 0
0.173333332 -0.1133333372 0
0.1599999964 -0.1133333372 0
0.1466666608 -0.1133333372 0
0.1333333404 -0.1133333372 0
0.1199999972 -0.1133333372 0
0.1066666692 -0.1133333372 0
0.0933333336 -0.1133333372 0
0.0799999984 -0.1133333372 0
0.06666667 -0.1133333372 0
0.0533333348 -0.1133333372 0
0.03999999912 -0.1133333372 0
0.02666666732 -0.1133333372 0
0.01333333364 -0.1133333372 0
0.0 -0.1133333372 0
0.400000004 -0.1266666652 0
0.3866666556 -0.1266666652 0
0.3733333348 -0.1266666652 0
[...]
POINT_DATA 961
SCALARS Temp float 1
LOOKUP_TABLE default
0.7700929954403349
0.8008662846278286
0.8229832225483025
0.8390961009419124
0.8509317699657097
0.8596744702335538
0.8661674793926223
0.8710179781864147
0.8746681499289628
0.877442255485955
0.8795809919138838
0.881265309927911
0.8826337899459622
0.8837961686279715
0.8848434282173658
0.88585579810101
0.8869100848084072
0.8880864085044627
0.8894752809079297
0.89118570376086
0.8933550325396531
0.8961619671063584
0.8998431065117376
0.90471648274896
0.9112131502424852
0.919922027147497
0.9316537908827519
0.9475343762915314
0.9691474810416338
0.9987911505501391
1.0401149030394958
0.81260548868711
0.8427789587246548
0.8646587665131258
0.8806835182447537
0.8924785897313334
0.9012045423964131
0.9076924361609788
0.9125436317572257
0.9161972680449615
0.9189760187175364
0.9211197630649207
0.9228090641872326
0.9241823619269695
0.925349384750302
0.926401180256816
0.9274180864044241
0.9284770338515813
0.9296582658246723
0.9310523963794834
0.9327684800634501
0.9349438300900388
0.9377569219633607
0.9414438169129509
0.9463214310212306
0.952818668120088
0.9615203607368192
0.9732293483401332
0.9890553857545927
1.0105484530470994
1.0398905266139935
1.0802394986757236
2.802823364461795
2.807316433500808
2.8198391078089093
2.8314100190296827
2.8410009502193327
2.848654933093443
2.854670884466664
2.8593725980265416
2.8630477398346095
2.8659353723815513
2.868229174702454
2.8700851230051114
2.871629842028492
2.872968426959791
2.874191407211381
2.875380973916996
2.8766167730294177
2.8779815860987283
2.879567205470157
2.8814808683870656
2.883852607950902
2.886843762225389
2.890656780025508
2.895545928902375
2.901827193623224
2.9098821776607355
2.9201411030513795
2.933000544311722
2.9485142877442354
2.965291421571533
2.9713145549571074
4.767972851439496
4.770428073481061
4.776458643681737
4.7840032758982876
4.791172363109747
4.7974058056832
4.802610536189059
4.806870855796031
4.810328018693848
4.813131432614619
4.815420004958913
4.817316518805063
4.818927803759352
4.8203474060646405
4.821659231707967
4.822941550161132
4.824271144227208
4.8257275401872874
4.827397350351582
4.829378736410064
4.831785893235079
4.834753232169777
4.838438320680126
4.843021672594197
4.848698837728513
4.855654996748278
4.863999398291703
4.873603652494155
4.883713019796155
4.891794078715693
4.895083528654879
6.727134897698573
6.728444683390178
6.731986397726454
6.736787703624676
6.741910661785299
6.746737592950201
6.751013122925114
6.754675710457463
6.757758474015082
6.760335413195298
6.762494250165576
6.76432348030054
6.7659070554835985
6.767323126293796
6.768644884141024
6.76994250429289
6.771285657087477
6.772746255099728
6.774401222036906
6.7763350317161155
6.778641610789497
6.7814248866618385
6.784796551606315
6.7888685567352764
6.79373542800171
6.799437529519036
6.805888885401433
6.8127440108664645
6.819172611696223
6.8239159413705615
6.825670304090249
8.68261266338689
8.68341252834474
8.685627040125594
8.688801430052319
8.692409080582037
8.696029419774476
8.699405015505583
8.702418991694305
8.705043463689027
8.707300582616432
8.709237837047478
8.710913681060962
8.712389886704749
8.713728043246839
8.714988497358538
8.716230713776167
8.717514415491681
8.718901037355597
8.720455135241542
8.722245351467368
8.724344382687148
8.726827109857167
8.729765458072986
8.733217837821849
8.737209612018924
8.741699723839899
8.746528418298467
8.751348013838495
8.755592775720798
8.758555472304538
8.759625798440759
10.635548155863493
10.636059221015314
10.637500908108525
10.639634769350758
10.642162570240664
10.644811646056722
10.6473838815103
10.649762703250673
10.651897236991688
10.653780925703856
10.655434133831115
10.656892084812789
10.658197359249353
10.659395706957124
10.660534046371435
10.66165984506346
10.66282129517144
10.664067805787454
10.665450414615513
10.667021683179742
10.668834519238544
10.67093917167929
10.673377274477957
10.67617155697635
10.679309466300655
10.682719644229133
10.686243225690422
10.689612490233408
10.692460307735782
10.694385749534195
10.69506852143258
12.586442427160373
12.586772950227637
12.587715715576003
12.589140473759898
12.590875097305162
12.592749324810399
12.59462555334043
12.59641089684878
12.598054710238804
12.599539230299007
12.600869316131863
12.602063997243592
12.603150493900536
12.604160438994418
12.60512773501096
12.606087526107325
12.607075841118395
12.608129503282928
12.609285951332183
12.61058258663265
12.612055185060843
12.613734811343427
12.615642512013563
12.617781135974633
12.620123854124863
12.622600256852166
12.625083775883462
12.627388272990157
12.629284236187395
12.630540015611682
12.63098047382153
14.535543618576977
14.53574886767732
14.536338676816786
14.537242573116302
14.538364204764614
14.539603329973993
14.540873432022686
14.54211098484852
14.543276957055749
14.544353378369133
14.545338123296988
14.546239849950332
14.547074005542456
14.54786005982352
14.548619765804277
14.549376173255123
14.550153113994647
14.550974873842334
14.551865790632036
14.552849497464766
14.553947492529534
14.55517668566269
14.556545537251624
14.558048603288707
14.559659654195876
14.561324583335935
14.56295678286434
14.564439093693329
14.565636242012646
14.56641842187889
14.566690780283325
16.482973000491196
16.48308175383751
16.483396113706824
16.48388339654558
16.484497937405152
16.485190676270687
16.48591741217468
16.486643814025935
16.487347026683093
16.488014765131616
16.488643206783287
16.48923463878456
16.489795429340226
16.49033451804161
16.49086238957099
16.491390424444504
16.491930495152232
16.492494657607875
16.49309479837386
16.4937420874416
16.494446073483815
16.495213259870855
16.49604500875205
16.496934778530903
16.497864924303833
16.498803822382392
16.499704648398886
16.50050749439231
16.501146095209624
16.501558876568236
16.501701811192124
18.42879005392727
18.428815325331705
18.428889747398674
18.429009393914562
18.429168474280875
18.429360220780456
18.429577766337342
18.429814825057125
18.43006611097656
18.430327493610704
18.430595972677786
18.430869536222712
18.431146970973412
18.43142766941355
18.431711446513063
18.431998372574412
18.4322886219868
18.43258232443044
18.43287940888192
18.433179428947444
18.43348136020706
18.433783369120228
18.43408255601058
18.434374710821036
18.434654125970216
18.43491356013792
18.435144454447315
18.435337489523683
18.43548350433509
18.43557467076158
18.43560568597522
18.53734119528517
18.537362587272188
18.53742580938651
18.53752814621617
18.537665517732833
18.537833022382696
18.538025504689013
18.5382380316025
18.538466228667374
18.53870645154829
18.538955831627458
18.53921222318385
18.53947409593841
18.53974040650754
18.540010460641945
18.54028377591893
18.540559949913398
18.540838526670953
18.541118858072927
18.54139995522992
18.541680327429706
18.541957814375813
18.54222941867316
18.54249117406905
18.542738079969393
18.54296416256438
18.543162713228476
18.54332673653519
18.54344959537464
18.543525770567562
18.54355159182377
18.645763155467876
18.6457816740605
18.645836553098707
18.645925851264046
18.64604660690923
18.646195180651326
18.64636762937547
18.646560038762072
18.646768781486088
18.646990672535114
18.647223040403752
18.647463721732382
18.64771100606346
18.647963554255774
18.64822029896518
18.648480336929087
18.64874282046583
18.649006844953995
18.64927133304639
18.64953491511124
18.649795807405578
18.650051696210205
18.65029963504325
18.650535984177388
18.65075641031509
18.65095598378598
18.651129395851047
18.651271303619673
18.65137678250554
18.651441827089723
18.65146381337993
18.754061397806748
18.754077750464855
18.7541263122695
18.75420565073851
18.754313552313448
18.754447244354754
18.75460364632028
18.754779602872386
18.75497207841545
18.75517828673149
18.755395765853294
18.755622395665096
18.755856374215078
18.756096168782165
18.75634044651233
18.756587993112923
18.756837627670958
18.757088112518
18.757338061305923
18.75758584727007
18.757829515087845
18.75806670490617
18.758294594041192
18.75850987930111
18.758708808379996
18.758887283252562
18.759041043512283
18.759165927122368
18.759258189790057
18.759314841880585
18.759333949151827
18.862239960352
18.86225466186227
18.862298390766426
18.86237005661051
18.862467955645872
18.86258991821477
18.862733480675097
18.862896050128743
18.86307505008915
18.863268024500638
18.8634727068556
18.863687047219496
18.863909206819997
18.864137531140305
18.864370503425373
18.86460668551317
18.864844653799082
18.865082930218232
18.865319912540112
18.865553807096703
18.865782567940148
18.866003850297812
18.866214981791728
18.86641296922629
18.866594543106846
18.866756254199267
18.866894622850854
18.86700633519212
18.867088471065777
18.86713873532822
18.867155658748857
18.97030181942314
18.97031525691809
18.970355275759896
18.970421019387683
18.970511136502935
18.970623881169864
18.97075723278844
18.97090901375866
18.971076998775047
18.971258996752717
18.971452911051642
18.971656768927268
18.971868726262
18.97208705523533
18.97231011474851
18.97253630905348
18.972764041742792
18.972991665226896
18.973217430301663
18.97343943922417
18.97365560614987
18.97386363171079
18.974060993340704
18.974244965304965
18.974412666671448
18.97456114655994
18.974687504084017
18.97478903659721
18.974863404775547
18.97490879485201
18.974924056343514
19.074337361812518
19.074349782261052
19.074386807116376
19.074447743641063
19.074531489748978
19.074636603431674
19.074761388077857
19.07490397752581
19.075062418606226
19.07523473517901
19.075418979177847
19.07561325911963
19.07581575014092
19.076024691169078
19.076238367651577
19.07645508408598
19.076673132731056
19.07689075848915
19.077106124392518
19.077317280930117
19.077522142577692
19.077718477177243
19.07790390829409
19.07807594174521
19.078232012238658
19.078369556651655
19.078486110058247
19.078579418701974
19.078647561514504
19.07868906634553
19.078703006735996
19.170434369460946
19.170445908116058
19.170480328720572
19.170537056955137
19.1706151725032
19.17071345811834
19.170830461388427
19.17096455694983
19.171114009374733
19.171277023148733
19.17145178538669
19.171636491965018
19.17182936005082
19.172028631362135
19.17223256372574
19.17243941422793
19.17264741956351
19.17285477327906
19.173059603927637
19.1732599569579
19.173453783091627
19.173638937803926
19.173813190960363
19.17397425582939
19.17411983218857
19.17424766847479
19.174355638777378
19.174441829781518
19.174504631632985
19.1745428228546
19.17455563987575
19.25862136173721
19.258632116115088
19.25866421418455
19.258717169208293
19.258790196419728
19.258882248332537
19.258992060258024
19.259118196399637
19.259259098311375
19.259413124044503
19.259578583795005
19.259753763251105
19.259936937042234
19.260126375827806
19.26032034410721
19.260517091324694
19.26071484116655
19.260911778418823
19.26110603689672
19.26129569078157
19.261478751519036
19.261653174020054
19.261816870487017
19.261967739666993
19.26210370569748
19.262222770606535
19.2623230764106
19.262402972830333
19.262461086359036
19.26249638351807
19.26250822189999
19.338965357226762
19.338975401023433
19.339005390192018
19.339054904278505
19.339123261896148
19.339209546588982
19.339312640990787
19.339431261450994
19.3395639958801
19.33970933464505
19.339865700427396
19.340031468868233
19.340204982088597
19.340384558115005
19.34056849305234
19.34075505803526
19.340942495238014
19.34112901201192
19.34131277615595
19.341491914180786
19.34166451418912
19.341828636404625
19.341982329204953
19.342123657427123
19.342250736958004
19.342361779159745
19.342455141400578
19.342529380509387
19.342583306173246
19.34261602897642
19.342626998667352
19.41156721061996
19.411576603528122
19.411604657646603
19.411651003817127
19.411715041239432
19.411795956756748
19.411892750974026
19.41200426466109
19.41212920876161
19.41226618903882
19.412413731284357
19.412570299545347
19.41273430928352
19.412904138154396
19.413078131168422
19.41325460185797
19.413431833204676
19.413608077153686
19.413781555258286
19.413950461894476
19.414112971225798
19.414267250389294
19.41441147648398
19.414543863355494
19.41466269226838
19.414766349702308
19.41485336892051
19.414922472782777
19.41497261574953
19.41500302107356
19.41501321008688
19.47655567287342
19.47656446749256
19.476590740609808
19.476634163577028
19.476694199667342
19.476770118722648
19.476861017514725
19.47696584020889
19.47708340255894
19.477212411831175
19.47735148831834
19.477499181493492
19.477653982608274
19.477814336180963
19.477978647152874
19.478145285031168
19.478312588331445
19.478478867965656
19.478642411719587
19.478801490906832
19.47895437002655
19.47909932145667
19.47923464262552
19.479358681057573
19.479469861587575
19.47956671876952
19.479647931494334
19.479712357808054
19.479759068540716
19.47978737666017
19.479796860148
19.534080827656553
19.53408907427764
19.53411371450021
19.53415445220142
19.534210802416794
19.534282102682315
19.534367529231844
19.53446611314219
19.53457676019314
19.534698267226144
19.534829340738582
19.534968611301714
19.53511464552885
19.535265957853966
19.535421018973594
19.535578262038847
19.535736089543395
19.535892879429525
19.536046992222126
19.53619677999398
19.536340597715704
19.536476818681386
19.53660385140639
19.536720162916776
19.53682430298788
19.536914932199917
19.536990851153636
19.537051029241674
19.537094632059954
19.53712104502825
19.537129891626897
19.584305718315456
19.584313468127633
19.584336626908794
19.584374924936608
19.584427919491628
19.58449500382445
19.584575420316963
19.584668273471614
19.584772546525524
19.584887115118445
19.585010763587924
19.585142197956436
19.585280057271806
19.58542292541316
19.585569340318497
19.585717801545815
19.585866778809496
19.586014719937353
19.58616005978601
19.58630123069534
19.58643667482842
19.58656485982468
19.58668429517504
19.586793553851585
19.586891294030544
19.586976283645985
19.58704742540075
19.587103780940566
19.58714459361297
19.58716930785329
19.58717758402633
19.627399285455606
19.62740659254113
19.62742843044307
19.627464550939035
19.627514545874856
19.62757785441577
19.627653773983386
19.627741470932545
19.627839994731453
19.627948289602188
19.628065209014075
19.628189527506464
19.628319951444386
19.628455130696064
19.62859366830317
19.628734128922368
19.62887504843123
19.629014943102362
19.629152319666225
19.629285686672578
19.629413567343942
19.62953451514614
19.6296471295315
19.629750076069016
19.629842106074612
19.62992207836562
19.629988981002903
19.6300419519628
19.63008029839975
19.630103512885714
19.630111285749365
19.663527425874538
19.663534348292334
19.66355503808617
19.66358926442747
19.663636647234892
19.6636966631859
19.663768655024437
19.66385184054755
19.663945324966
19.664048111026528
19.6641591121054
19.664277163098618
19.664401030658798
19.66452942466514
19.66466100810979
19.664794406078997
19.664928216020115
19.665061017683094
19.66519138388554
19.66531789238457
19.6654391389362
19.665553752614244
19.6656604109066
19.665757858542907
19.665844925416717
19.665920546127712
19.665983779199607
19.666033825094825
19.666070042853775
19.666091963996468
19.666099303015436
19.692845960032503
19.692852560189888
19.69287228786998
19.692904926037077
19.6929501169404
19.693007367237684
19.693076056121054
19.693155443080833
19.693244678923477
19.693342814772272
19.693448814093266
19.69356156285582
19.69367987933133
19.69380252533081
19.693928216168377
19.69405562995228
19.694183418236587
19.694310216421655
19.694434654921995
19.694555371291553
19.694671023307762
19.69478030397147
19.694881956006114
19.694974789600714
19.69505769897632
19.69512968021537
19.695189848562944
19.695237454452435
19.695271898199636
19.695292742185064
19.695299719996836
19.71549313439252
19.715499478885466
19.71551844312287
19.71554982057381
19.715593270535255
19.71564832263529
19.715714384123984
19.71579074677622
19.715876596947112
19.715971023769402
19.716073030393062
19.71618154359798
19.71629542324355
19.716413473289805
19.71653445176166
19.716657080203884
19.716780054539594
19.716902055727797
19.717021761143098
19.717137856801912
19.71724905038181
19.717354085907793
19.71745175774878
19.71754092750699
19.717620539554428
19.717689637586183
19.7177473805153
19.717793057055594
19.71782609901544
19.71784609225026
19.71785278484441
19.731583296350728
19.73158945540627
19.73160786583165
19.73163832849925
19.731680514741253
19.73173397044419
19.731798122784557
19.73187228656137
19.731955673604258
19.73204740043167
19.732146498950605
19.73225192568783
19.73236257098603
19.732477269851717
19.732594811890078
19.732713950837358
19.73283341551944
19.732951920641828
19.73306817826863
19.733180910071457
19.733288860259936
19.7333908100108
19.73348559108623
19.733572102108553
19.73364932337376
19.733716332521443
19.733772319466954
19.733816600005316
19.733848628160096
19.733868006310075
19.733874492728248
19.7412020927729
19.74120813940069
19.741226214030394
19.741256121941646
19.74129754163923
19.741350028715356
19.741413022267785
19.741485850906553
19.74156774178951
19.741657827969505
19.741755158778872
19.741858708835263
19.741967387084294
19.742080047536202
19.742195499171533
19.742312515504477
19.742429845583192
19.742546224839238
19.74266038660593
19.742771074361862
19.74287705459156
19.742977131047695
19.743070158135044
19.743155056814665
19.74323082898855
19.743296572650088
19.743351496254576
19.743394931755304
19.74342634640614
19.743445352412607
19.74345171410137
19.744402382836125
19.744408391790305
19.744426353893147
19.744456075888067
19.744497238663413
19.744549401039382
19.74461200608274
19.744684387007794
19.74476577608994
19.744855311911504
19.744952049642453
19.74505496997153
19.74516298809763
19.74527496442821
19.745389714473216
19.745506018416403
19.745622632126324
19.745738298022573
19.745851756603773
19.74596175868629
19.746067078238905
19.746166526587228
19.746258965718557
19.746343324062064
19.746418610731318
19.746483930503416
19.746538498004757
19.74658165056098
19.74661285982085
19.746631741251925
19.74663806118946
