# vtk DataFile Version 2.0
Unstructured Grid Example
ASCII
DATASET UNSTRUCTURED_GRID

POINTS 961 float
0.400000004 0.01999999956 0
0.3866666556 0.01999999956 0
0.3733333348 0.01999999956 0
0.3600000144 0.01999999956 0
0.346666664 0.01999999956 0
0.3333333432 0.01999999956 0
0.3199999928 0.01999999956 0
0.3066666724 0.01999999956 0
0.293333322 0.01999999956 0
0.2800000012 0.01999999956 0
0.2666666804 0.01999999956 0
0.25333333 0.01999999956 0
0.2399999948 0.01999999956 0
0.226666674 0.01999999956 0
0.2133333384 0.01999999956 0
0.2000000028 0.01999999956 0
0.1866666676 0.01999999956 0
0.173333332 0.01999999956 0
0.1599999964 0.01999999956 0
0.1466666608 0.01999999956 0
0.1333333404 0.01999999956 0
0.1199999972 0.01999999956 0
0.1066666692 0.01999999956 0
0.0933333336 0.01999999956 0
0.0799999984 0.01999999956 0
0.06666667 0.01999999956 0
0.0533333348 0.01999999956 0
0.03999999912 0.01999999956 0
0.02666666732 0.01999999956 0
0.01333333364 0.01999999956 0
0.0 0.01999999956 0
0.400000004 0.00666666684 0
0.3866666556 0.00666666684 0
0.3733333348 0.00666666684 0
0.3600000144 0.00666666684 0
0.346666664 0.00666666684 0
0.3333333432 0.00666666684 0
0.3199999928 0.00666666684 0
0.3066666724 0.00666666684 0
0.293333322 0.00666666684 0
0.2800000012 0.00666666684 0
0.2666666804 0.00666666684 0
0.25333333 0.00666666684 0
0.2399999948 0.00666666684 0
0.226666674 0.00666666684 0
0.2133333384 0.00666666684 0
0.2000000028 0.00666666684 0
0.1866666676 0.00666666684 0
0.173333332 0.00666666684 0
0.1599999964 0.00666666684 0
0.1466666608 0.00666666684 0
0.1333333404 0.00666666684 0
0.1199999972 0.00666666684 0
0.1066666692 0.00666666684 0
0.0933333336 0.00666666684 0
0.0799999984 0.00666666684 0
0.06666667 0.00666666684 0
0.0533333348 0.00666666684 0
0.03999999912 0.00666666684 0
0.02666666732 0.00666666684 0
0.01333333364 0.00666666684 0
0.0 0.00666666684 0
0.400000004 -0.00666666684 0
0.3866666556 -0.00666666684 0
0.3733333348 -0.00666666684 0
0.3600000144 -0.00666666684 0
0.346666664 -0.00666666684 0
0.3333333432 -0.00666666684 0
0.3199999928 -0.00666666684 0
0.3066666724 -0.00666666684 0
0.293333322 -0.00666666684 0
0.2800000012 -0.00666666684 0
0.2666666804 -0.00666666684 0
0.25333333 -0.00666666684 0
0.2399999948 -0.00666666684 0
0.226666674 -0.00666666684 0
0.2133333384 -0.00666666684 0
0.2000000028 -0.00666666684 0
0.1866666676 -0.00666666684 0
0.173333332 -0.00666666684 0
0.1599999964 -0.00666666684 0
0.1466666608 -0.00666666684 0
0.1333333404 -0.00666666684 0
0.1199999972 -0.00666666684 0
0.1066666692 -0.00666666684 0
0.0933333336 -0.00666666684 0
0.0799999984 -0.00666666684 0
0.06666667 -0.00666666684 0
0.0533333348 -0.00666666684 0
0.03999999912 -0.00666666684 0
0.02666666732 -0.00666666684 0
0.01333333364 -0.00666666684 0
0.0 -0.00666666684 0
0.400000004 -0.01999999956 0
0.3866666556 -0.01999999956 0
0.3733333348 -0.01999999956 0
0.3600000144 -0.01999999956 0
0.346666664 -0.01999999956 0
0.3333333432 -0.01999999956 0
0.3199999928 -0.01999999956 0
0.3066666724 -0.01999999956 0
0.293333322 -0.01999999956 0
0.2800000012 -0.01999999956 0
0.2666666804 -0.01999999956 0
0.25333333 -0.01999999956 0
0.2399999948 -0.01999999956 0
0.226666674 -0.01999999956 0
0.2133333384 -0.01999999956 0
0.2000000028 -0.01999999956 0
0.1866666676 -0.01999999956 0
0.173333332 -0.01999999956 0
0.1599999964 -0.01999999956 0
0.1466666608 -0.01999999956 0
0.1333333404 -0.01999999956 0
0.1199999972 -0.01999999956 0
0.1066666692 -0.01999999956 0
0.0933333336 -0.01999999956 0
0.0799999984 -0.01999999956 0
0.06666667 -0.01999999956 0
0.0533333348 -0.01999999956 0
0.03999999912 -0.01999999956 0
0.02666666732 -0.01999999956 0
0.01333333364 -0.01999999956 0
0.0 -0.01999999956 0
0.400000004 -0.03333333508 0
0.3866666556 -0.03333333508 0
0.3733333348 -0.03333333508 0
0.3600000144 -0.03333333508 0
0.346666664 -0.03333333508 0
0.3333333432 -0.03333333508 0
0.3199999928 -0.03333333508 0
0.3066666724 -0.03333333508 0
0.293333322 -0.03333333508 0
0.2800000012 -0.03333333508 0
0.2666666804 -0.03333333508 0
0.25333333 -0.03333333508 0
0.2399999948 -0.03333333508 0
0.226666674 -0.03333333508 0
0.2133333384 -0.03333333508 0
0.2000000028 -0.03333333508 0
0.1866666676 -0.03333333508 0
0.173333332 -0.03333333508 0
0.1599999964 -0.03333333508 0
0.1466666608 -0.03333333508 0
0.1333333404 -0.03333333508 0
0.1199999972 -0.03333333508 0
0.1066666692 -0.03333333508 0
0.0933333336 -0.03333333508 0
0.0799999984 -0.03333333508 0
0.06666667 -0.03333333508 0
0.0533333348 -0.03333333508 0
0.03999999912 -0.03333333508 0
0.02666666732 -0.03333333508 0
0.01333333364 -0.03333333508 0
0.0 -0.03333333508 0
0.400000004 -0.0466666668 0
0.3866666556 -0.0466666668 0
0.3733333348 -0.0466666668 0
0.3600000144 -0.0466666668 0
0.346666664 -0.0466666668 0
0.3333333432 -0.0466666668 0
0.3199999928 -0.0466666668 0
0.3066666724 -0.0466666668 0
0.293333322 -0.0466666668 0
0.2800000012 -0.0466666668 0
0.2666666804 -0.0466666668 0
0.25333333 -0.0466666668 0
0.2399999948 -0.0466666668 0
0.226666674 -0.0466666668 0
0.2133333384 -0.0466666668 0
0.2000000028 -0.0466666668 0
0.1866666676 -0.0466666668 0
0.173333332 -0.0466666668 0
0.1599999964 -0.0466666668 0
0.1466666608 -0.0466666668 0
0.1333333404 -0.0466666668 0
0.1199999972 -0.0466666668 0
0.1066666692 -0.0466666668 0
0.0933333336 -0.0466666668 0
0.0799999984 -0.0466666668 0
0.06666667 -0.0466666668 0
0.0533333348 -0.0466666668 0
0.03999999912 -0.0466666668 0
0.02666666732 -0.0466666668 0
0.01333333364 -0.0466666668 0
0.0 -0.0466666668 0
0.400000004 -0.0599999988 0
0.3866666556 -0.0599999988 0
0.3733333348 -0.0599999988 0
0.3600000144 -0.0599999988 0
0.346666664 -0.0599999988 0
0.3333333432 -0.0599999988 0
0.3199999928 -0.0599999988 0
0.3066666724 -0.0599999988 0
0.293333322 -0.0599999988 0
0.2800000012 -0.0599999988 0
0.2666666804 -0.0599999988 0
0.25333333 -0.0599999988 0
0.2399999948 -0.0599999988 0
0.226666674 -0.0599999988 0
0.2133333384 -0.0599999988 0
0.2000000028 -0.0599999988 0
0.1866666676 -0.0599999988 0
0.173333332 -0.0599999988 0
0.1599999964 -0.0599999988 0
0.1466666608 -0.0599999988 0
0.1333333404 -0.0599999988 0
0.1199999972 -0.0599999988 0
0.1066666692 -0.0599999988 0
0.0933333336 -0.0599999988 0
0.0799999984 -0.0599999988 0
0.06666667 -0.0599999988 0
0.0533333348 -0.0599999988 0
0.03999999912 -0.0599999988 0
0.02666666732 -0.0599999988 0
0.01333333364 -0.0599999988 0
0.0 -0.0599999988 0
0.400000004 -0.0733333304 0
0.3866666556 -0.0733333304 0
0.3733333348 -0.0733333304 0
0.3600000144 -0.0733333304 0
0.346666664 -0.0733333304 0
0.3333333432 -0.0733333304 0
0.3199999928 -0.0733333304 0
0.3066666724 -0.0733333304 0
0.293333322 -0.0733333304 0
0.2800000012 -0.0733333304 0
0.2666666804 -0.0733333304 0
0.25333333 -0.0733333304 0
0.2399999948 -0.0733333304 0
0.226666674 -0.0733333304 0
0.2133333384 -0.0733333304 0
0.2000000028 -0.0733333304 0
0.1866666676 -0.0733333304 0
0.173333332 -0.0733333304 0
0.1599999964 -0.0733333304 0
0.1466666608 -0.0733333304 0
0.1333333404 -0.0733333304 0
0.1199999972 -0.0733333304 0
0.1066666692 -0.0733333304 0
0.0933333336 -0.0733333304 0
0.0799999984 -0.0733333304 0
0.06666667 -0.0733333304 0
0.0533333348 -0.0733333304 0
0.03999999912 -0.0733333304 0
0.02666666732 -0.0733333304 0
0.01333333364 -0.0733333304 0
0.0 -0.0733333304 0
0.400000004 -0.086666666 0
0.3866666556 -0.086666666 0
0.3733333348 -0.086666666 0
0.3600000144 -0.086666666 0
0.346666664 -0.086666666 0
0.3333333432 -0.086666666 0
0.3199999928 -0.086666666 0
0.3066666724 -0.086666666 0
0.293333322 -0.086666666 0
0.2800000012 -0.086666666 0
0.2666666804 -0.086666666 0
0.25333333 -0.086666666 0
0.2399999948 -0.086666666 0
0.226666674 -0.086666666 0
0.2133333384 -0.086666666 0
0.2000000028 -0.086666666 0
0.1866666676 -0.086666666 0
0.173333332 -0.086666666 0
0.1599999964 -0.086666666 0
0.1466666608 -0.086666666 0
0.1333333404 -0.086666666 0
0.1199999972 -0.086666666 0
0.1066666692 -0.086666666 0
0.0933333336 -0.086666666 0
0.0799999984 -0.086666666 0
0.06666667 -0.086666666 0
0.0533333348 -0.086666666 0
0.03999999912 -0.086666666 0
0.02666666732 -0.086666666 0
0.01333333364 -0.086666666 0
0.0 -0.086666666 0
0.400000004 -0.1000000016 0
0.3866666556 -0.1000000016 0
0.3733333348 -0.1000000016 0
0.3600000144 -0.1000000016 0
0.346666664 -0.1000000016 0
0.3333333432 -0.1000000016 0
0.3199999928 -0.1000000016 0
0.3066666724 -0.1000000016 0
0.293333322 -0.1000000016 0
0.2800000012 -0.1000000016 0
0.2666666804 -0.1000000016 0
0.25333333 -0.1000000016 0
0.2399999948 -0.1000000016 0
0.226666674 -0.1000000016 0
0.2133333384 -0.1000000016 0
0.2000000028 -0.1000000016 0
0.1866666676 -0.1000000016 0
0.173333332 -0.1000000016 0
0.1599999964 -0.1000000016 0
0.1466666608 -0.1000000016 0
0.1333333404 -0.1000000016 0
0.1199999972 -0.1000000016 0
0.1066666692 -0.1000000016 0
0.0933333336 -0.1000000016 0
0.0799999984 -0.1000000016 0
0.06666667 -0.1000000016 0
0.0533333348 -0.1000000016 0
0.03999999912 -0.1000000016 0
0.02666666732 -0.1000000016 0
0.01333333364 -0.1000000016 0
0.0 -0.1000000016 0
0.400000004 -0.1133333372 0
0.3866666556 -0.1133333372 0
0.3733333348 -0.1133333372 0
0.3600000144 -0.1133333372 0
0.346666664 -0.1133333372 0
0.3333333432 -0.1133333372 0
0.3199999928 -0.1133333372 0
0.3066666724 -0.1133333372 0
0.293333322 -0.1133333372 0
0.2800000012 -0.1133333372 0
0.2666666804 -0.1133333372 0
0.25333333 -0.1133333372 0
0.2399999948 -0.1133333372 0
0.226666674 -0.1133333372 0
0.2133333384 -0.1133333372 0
0.2000000028 -0.1133333372 0
0.1866666676 -0.1133333372 0
0.173333332 -0.1133333372 0
0.1599999964 -0.1133333372 0
0.1466666608 -0.1133333372 0
0.1333333404 -0.1133333372 0
0.1199999972 -0.1133333372 0
0.1066666692 -0.1133333372 0
0.0933333336 -0.1133333372 0
0.0799999984 -0.1133333372 0
0.06666667 -0.1133333372 0
0.0533333348 -0.1133333372 0
0.03999999912 -0.1133333372 0
0.02666666732 -0.1133333372 0
0.01333333364 -0.1133333372 0
0.0 -0.1133333372 0
0.400000004 -0.1266666652 0
0.3866666556 -0.1266666652 0
0.3733333348 -0.1266666652 0
[...]
POINT_DATA 961
SCALARS Temp float 1
LOOKUP_TABLE default
0.71354420267733
0.7420433767769954
0.7624954039711247
0.7773660400350132
0.7882618853828816
0.7962846216648982
0.802218577431445
0.8066282821366771
0.8099246230545399
0.8124086620013179
0.8143036103178505
0.8157770004075751
0.8169568621601367
0.8179443124893133
0.8188229488785627
0.8196663011214388
0.8205446550109459
0.8215313250758781
0.8227092444382325
0.824178503736561
0.8260655324201909
0.8285351863801889
0.8318061560750799
0.8361728588552804
0.8420348298507667
0.8499384328799099
0.8606362863070844
0.8751742018371688
0.8950236096693038
0.9223199814330366
0.9604507129177458
0.7531324091776781
0.7810778609936677
0.8013102179491663
0.8160994537615132
0.8269578832074287
0.8349652590775153
0.8408945859595819
0.845305003848222
0.8486045838385339
0.851092922411067
0.852992478576238
0.8544704308349087
0.855654683871527
0.8566463519270259
0.8575290979113859
0.8583765571297389
0.8592591355056971
0.8602502670642871
0.8614329857673083
0.8629074379792083
0.864800021841471
0.867275394677158
0.8705517598138883
0.874922514469845
0.8807852185550328
0.888682473079803
0.8993596660221299
0.913847663347824
0.93358677770508
0.9606048461981869
0.9978390305075935
2.606615384874009
2.6107671098751317
2.622338081103269
2.6330099707857193
2.6418347322264566
2.64885592794236
2.6543532903645772
2.658628802430098
2.6619503256192925
2.6645401760567773
2.6665782168818755
2.668209063217913
2.6695498907625534
2.6706977390749618
2.671736011087678
2.6727402846401764
2.673783717354565
2.6749423473825864
2.676300576441796
2.677957175872973
2.6800321510948186
2.682674691746084
2.6860723446538524
2.6904610490866623
2.6961344674526515
2.703447827438371
2.7128025193610177
2.7245704740162613
2.738808995028912
2.7542433803166393
2.759784489909683
4.4369993074618685
4.4392649537494275
4.444825705851979
4.451774038008223
4.458362044158912
4.464073619462721
4.468824902436287
4.472695833955457
4.475818624906665
4.478332613016014
4.48036705155283
4.482035966555594
4.483438374943651
4.484660809255618
4.485780738697567
4.486870320756318
4.488000285517897
4.489243895517213
4.490681012913046
4.492402284806204
4.494513357560247
4.497138826510686
4.500425056228124
4.504540110763815
4.509666596659511
4.515978367464315
4.523580146035889
4.532358313170934
4.541621895518353
4.549037702291415
4.5520591450961145
6.261977303965423
6.2631830239302335
6.266441572311686
6.270853517790849
6.275551835681463
6.279966335420566
6.283862332735938
6.287184413647962
6.289964516157195
6.292272123640057
6.2941891406585375
6.295797941814739
6.297176492345433
6.29839722565761
6.29952786469407
6.300633261940517
6.301777764672306
6.303027800906377
6.304454489293366
6.306136042535325
6.308159591299045
6.310621766082822
6.313626720757371
6.31727929729744
6.321668798992958
6.326835161566184
6.3327023609329345
6.338955406371936
6.344832035846135
6.349174175242693
6.350781141759407
8.083693354325709
8.084427689625212
8.086459570209465
8.089368633752285
8.092668363882655
8.095970662626584
8.09903854003262
8.101765062316797
8.104125516653413
8.106141308496756
8.107857092371098
8.10932748442926
8.110610010508461
8.111761896523628
8.112839121299785
8.113896785958781
8.11499020553399
8.116176293655087
8.117514910017174
8.119069802896668
8.120908636356612
8.123101325652568
8.125715359452911
8.128806118061856
8.13239890016569
8.136458147574182
8.140839162214828
8.145224075902004
8.14909377741065
8.15179817238678
8.152775804539361
9.90321354570863
9.903681194846296
9.904999602988369
9.906948530958546
9.909252665155293
9.911660547263319
9.91398981245317
9.91613356609281
9.918045645153885
9.919720785110638
9.921178501747708
9.922451929823783
9.923580894832249
9.924608057673439
9.92557708848971
9.926532121756235
9.927517948585376
9.928580505557443
9.929767292408037
9.931127316486705
9.932710050417736
9.93456270466444
9.936724777454412
9.939218597535536
9.942034234919243
9.945107786502037
9.948294832928056
9.95135061233116
9.953938535032446
9.955690474055688
9.95631210358616
11.721007851055843
11.721309013196764
11.72216745151218
11.723462968959256
11.725036807281713
11.726732081845958
11.72842221721737
11.730022045603548
11.731485462913366
11.732796733183907
11.733960975091785
11.734996336829209
11.735928469132567
11.73678704126863
11.737603775137224
11.738411514638903
11.739243917620755
11.740135397564517
11.741120986133105
11.742235760618582
11.743513409990893
11.744983418601354
11.74666619848645
11.748565561940808
11.750658134499988
11.752880507145463
11.755117574733907
11.75719928955291
11.758915465148423
11.76005365945408
11.760453132263306
13.537309702378264
13.537495520727532
13.53802905893705
13.53884535329255
13.539855636847415
13.540967656793349
13.542101936840783
13.543200313427832
13.544227293159853
13.54516685154053
13.54601759035252
13.546788048752784
13.54749300859201
13.548150940102522
13.548782402264328
13.5494091425571
13.550053634576896
13.550738790637832
13.55148760792639
13.552322488586842
13.553263939033073
13.55432832382252
13.555524318664803
13.556847884816051
13.558275917248553
13.5597596808071
13.561220500255883
13.56255149090987
13.563628942434644
13.564333975621773
13.56457965183395
15.352232853068115
15.35232995150259
15.352610293729738
15.35304380839381
15.353588514504267
15.35419937575363
15.354835917978095
15.355466845757231
15.356071509309864
15.35663905232021
15.357166450874523
15.357656331131999
15.358115090592396
15.358551501525298
15.358975764200341
15.35939891073081
15.359832436483877
15.360288021007284
15.36077720896941
15.361310912146978
15.361898581558776
15.362546899254063
15.363257848870763
15.364026165906616
15.364836379318648
15.365660142446567
15.366455078383861
15.367166694314069
15.367734538745312
15.368102342246054
15.36822983110368
17.165831837096533
17.165852248798423
17.16591222939007
17.16600824604718
17.166135105102395
17.166286769838496
17.16645716800445
17.166640817057633
17.166833205920227
17.167030934420893
17.167231684412137
17.167434084151875
17.167637528893884
17.167841997960863
17.1680478814403
17.168255822189682
17.168466572057447
17.168680850632576
17.16889919718051
17.1691218050903
17.169348330193998
17.169577672013155
17.169807731174686
17.17003517676964
17.170255266266675
17.17046180317381
17.170647326687366
17.17080361529975
17.17092252393367
17.17099705782416
17.171022464611163
17.267019768700294
17.267036605625258
17.267086266435648
17.267166335767705
17.26727319834575
17.26740253888359
17.2675498632975
17.267710935701217
17.26788208435163
17.268060356315946
17.26824355441824
17.2684301840839
17.2686193498769
17.268810631915546
17.269003954349998
17.269199454581262
17.269397356984236
17.269597845262414
17.269800929865728
17.270006305913085
17.270213199319173
17.270420205929057
17.27062513105171
17.27082486032189
17.271015291851757
17.27119138407864
17.271347366753975
17.27147714526117
17.271574886905803
17.271635713809808
17.271656370986452
17.368103012432467
17.368117173824857
17.36815906404147
17.368226982862073
17.36831834824357
17.36843001106606
17.368558597638945
17.368700814057146
17.368853680384625
17.36901467061282
17.369181773449494
17.36935348311248
17.369528744096492
17.3697068708545
17.369887451394735
17.370070243549225
17.370255069886817
17.370441709056387
17.370629783846358
17.370818645438696
17.371007255252724
17.37119407151468
17.371376948146157
17.37155307115402
17.37171895087571
17.37187050334936
17.372003242386974
17.372112589615732
17.372194284078024
17.37224483753713
17.37226195567074
17.46908663918226
17.46909874840361
17.46913464930562
17.469193112893144
17.469272250148933
17.469369715401406
17.46948293542038
17.46960932203386
17.469746447609037
17.46989216140967
17.470044653853897
17.470202468551907
17.470364476191936
17.470529824271104
17.470697868377307
17.47086809262576
17.471040025818258
17.471213153124474
17.47138682579733
17.471560170705505
17.47173200285396
17.471900748365567
17.47206438408129
17.472220413185628
17.472365886608447
17.472497490172135
17.472611705582597
17.472705043259136
17.472774329725596
17.47281701227838
17.472831431718575
17.569974457209625
17.56998495920296
17.570016150547506
17.570067120509517
17.570136454832518
17.570222370158284
17.570322869875593
17.570435893569304
17.57055944733618
17.570691696492062
17.57083102448026
17.570976053584303
17.571125635638573
17.57127882199039
17.571434815766686
17.571592912584684
17.571752436010996
17.571912668479886
17.57207278121721
17.572231766015136
17.572388372583553
17.57254105830604
17.57268795473272
17.57282686544736
17.572955299343864
17.573070551318793
17.573169831847117
17.573250440345173
17.573309968367642
17.573346507061434
17.573358828008814
17.670769348572726
17.67077856955857
17.670805994778995
17.670850933030895
17.670912301344455
17.670988715633968
17.671078598426536
17.67118028473138
17.67129211861715
17.671412525425623
17.671540062341748
17.67167344126161
17.671811528791345
17.67195332955935
17.67209795400234
17.672244575397265
17.67239238180046
17.672540523851367
17.67268806225145
17.67283391803393
17.672976829222574
17.673115319693956
17.673247682914756
17.67337199159116
17.673486133739885
17.673587882570548
17.673674998638496
17.673745358717817
17.673797100833827
17.673828767879566
17.673839430111315
17.76824349336428
17.768251675682123
17.76827603870986
17.768316045602653
17.76837084857684
17.76843935114262
17.7685202837003
17.768612279181795
17.768713944781094
17.76882391755632
17.76894090640431
17.769063713984636
17.76919124155763
17.769322480991576
17.769456493847308
17.76959238118111
17.769729248971206
17.769866170017107
17.77000214594438
17.770136072256985
17.770266709583254
17.7703926658732
17.770512390901967
17.77062419151765
17.770726266107566
17.7708167630542
17.77089386047537
17.77095586225436
17.77100130262956
17.771029047177908
17.771038377396202
17.85914562461249
17.85915295145186
17.859174786398093
17.85921070307169
17.85926002337998
17.85932186092928
17.859395174838184
17.859478824269317
17.859571621978578
17.859672376925417
17.859779928535694
17.859893166426087
17.86001103754307
17.86013254377946
17.8602567291982
17.860382659621013
17.86050939875302
17.86063598142738
17.86076138720952
17.860884516919665
17.861004174659907
17.861119059151058
17.861227764767516
17.861328798871
17.861420612831946
17.861501650046847
17.86157040797704
17.86162551006158
17.86166578195614
17.86169032358826
17.861698568586846
17.94344387025332
17.943450485015223
17.943470211497903
17.94350270358066
17.94354740733468
17.943603591761136
17.943670387644595
17.943746827248056
17.94383188459728
17.94392450814827
17.944023648588242
17.944128276049444
17.94423738815457
17.94435001122178
17.944465193304072
17.944581991151708
17.944699454615797
17.94481660876978
17.94493243652169
17.945045863827673
17.94515574954268
17.945260882914532
17.945359988439588
17.945451743387288
17.945534804874928
17.94560784899126
17.945669619128147
17.94571898021265
17.94575497491175
17.94577687578235
17.945784227715286
18.021108626819284
18.02111464420935
18.02113259896741
18.021162204088515
18.021202997670045
18.021254364992306
18.021315566980913
18.021385769409875
18.02146407351507
18.021549541154286
18.02164121739936
18.02173814537214
18.021839374465532
18.021943963822352
18.022050979499873
18.022159486911676
18.022268541510762
18.022377177699752
18.022484398283336
18.02258916613788
18.022690399647374
18.0227869742715
18.022877729518015
18.02296148571291
18.023037067276373
18.02310333455636
18.023159221666308
18.023203777746247
18.023236208897803
18.023255916465217
18.023262527828024
18.092112513641602
18.09211802736589
18.09213448628971
18.092161647488346
18.09219911806356
18.09224637123869
18.092302767532537
18.09236757650274
18.09244000030484
18.092519193232807
18.092604280212026
18.092694369566313
18.09278856105961
18.092885950795306
18.092985631285664
18.093086687915008
18.09318819430449
18.093289206316257
18.093388756601556
18.09348585098336
18.093579467817897
18.093668562200442
18.093752074004286
18.093828943491637
18.093898131216378
18.09395864401947
18.094009564885766
18.09405008467103
18.094079533797984
18.094097410766427
18.094103404844553
18.15643035493971
18.15643544313535
18.15645063687274
18.156475726448484
18.156510371233374
18.156554111588054
18.15660638488298
18.1566665419127
18.156733865304325
18.156807584876407
18.156886892955537
18.156970955426637
18.1570589194456
18.157149919206777
18.157243078040686
18.15733750779409
18.15743230763157
18.15752656179859
18.157619337901707
18.157709686676636
18.15779664406445
18.15787923707763
18.157956492274124
18.158027450101585
18.158091181936555
18.158146811473852
18.158193538537425
18.15823066378314
18.158257612999407
18.158273958667976
18.158279436956647
18.214039564702382
18.214044293830728
18.214058419012304
18.21408175579706
18.214114003471803
18.214154754034222
18.214203504544276
18.214259669718047
18.214322596572362
18.214391576685227
18.21446585907748
18.21454465987987
18.21462716967539
18.214712559778874
18.21479998573648
18.214888588797038
18.21497749720009
18.215065826670084
18.21515268138745
18.21523715614974
18.215318340292352
18.21539532455896
18.215467209644977
18.21553311932274
18.215592215118313
18.21564371410437
18.215686908142914
18.215721183402305
18.215746039287545
18.215761105019432
18.21576615258097
18.264919435364227
18.26492386305392
18.264937090516092
18.264958952606992
18.26498917925672
18.265027402361746
18.265073165512963
18.26512593384504
18.265185105929966
18.265250023751246
18.265319983734265
18.265394245321147
18.265472037956176
18.265552567649895
18.265635021435497
18.265718570321116
18.265802372350873
18.265885575054266
18.26596731832717
18.266046738257362
18.266122972273177
18.266195166586293
18.26626248460645
18.266324118970168
18.26637930430777
18.266427332251386
18.266467567235605
18.26649946218245
18.26652257351719
18.266536574156607
18.266541263561734
18.30905210891359
18.309056286065157
18.30906876695448
18.30908940121975
18.309117942341103
18.30915405305603
18.309197313208557
18.309247227626997
18.30930323601075
18.30936472122545
18.309431018937488
18.30950142534013
18.309575203820735
18.30965159166698
18.30972980516607
18.30980904359215
18.309888493512464
18.309967332615095
18.310044733924137
18.310119870762566
18.31019192269881
18.31026008328529
18.310323568250663
18.31038162658542
18.31043355179144
18.310478694752327
18.3105164769516
18.310546403329393
18.310568074442475
18.31058119685745
18.310585591125996
18.34642168788473
18.346425660267617
18.346437530686096
18.34645716004148
18.346484319816792
18.346518696445997
18.346559897820807
18.346607459758157
18.346660854431057
18.346719497440674
18.34678275640931
18.3468499580581
18.346920394604577
18.346993330525112
18.347068008078214
18.34714365200358
18.347219474688313
18.34729468094993
18.347368473167226
18.34744005700484
18.347508647863904
18.347573478746046
18.347633808194804
18.34768893059923
18.34773818625932
18.347780972635068
18.347816755642384
18.347845080434254
18.347865581484847
18.347877991111
18.347882145958238
18.37701497626416
18.37701878574853
18.377030170346377
18.37704899941351
18.37707505798438
18.377108050407266
18.37714760590181
18.3771932840291
18.377244582079896
18.377300941268455
18.377361754562
18.37742637327346
18.377494113241216
18.377564261599378
18.377636082574078
18.37770882266257
18.377781716380614
18.377853991694106
18.377924875764815
18.37799360117328
18.378059412676535
18.378121575101083
18.378179381044813
18.37823216055619
18.378279290298504
18.37832020359204
18.378354400301863
18.3783814561159
18.37840103113762
18.37841287707179
18.378416842652452
18.400821121304197
18.400824806840927
18.400835821682538
18.4008540413281
18.400879260681304
18.40091119718285
18.400949495713437
18.400993733376474
18.40104342615978
18.40109803451685
18.40115697065411
18.401219604773825
18.401285271086817
18.401353274568088
18.401422896923144
18.401493402080916
18.401564042322562
18.401634064139703
18.401702714380715
18.40176924678908
18.401832928940422
18.401893050116776
18.401948928805027
18.40199992190184
18.40204543321812
18.40208492265301
18.402117915081615
18.402144008575302
18.40216288195175
18.402174301031582
18.402178123333425
18.41783153450635
18.417835132930144
18.41784588784891
18.417863678933916
18.417888307803153
18.417919500828187
18.417956913610887
18.41800013531917
18.418048694871782
18.41810206611766
18.418159674761704
18.41822090437231
18.418285102276304
18.418351586293888
18.41841965080512
18.418488572437273
18.418557616429805
18.41862604275824
18.418693112527
18.418758094696887
18.418820273120467
18.418878954382983
18.41893347514748
18.418983211027875
18.419027584643676
18.419066074209912
18.419098221758496
18.419123640658928
18.41914202248175
18.419153142645932
18.41915686463474
18.42804023012666
18.428043776836407
18.428054377434343
18.428071914012996
18.42809619209147
18.428126943239523
18.428163829314343
18.42820644654437
18.42825433144438
18.428306965766833
18.428363783221098
18.428424175345114
18.42848749733044
18.428553074740925
18.42862020963129
18.42868818633954
18.428756277979957
18.42882375271115
18.42888988026174
18.428953938757527
18.429015221804498
18.42907304630237
18.429126759694867
18.429175748646557
18.429219446836207
18.42925734321021
18.42928898982252
18.429314008956933
18.429332099600558
18.42934304274629
18.42934670533784
18.43144352272022
18.431447052282905
18.431457601708836
18.431475053884384
18.431499215608376
18.431529820157397
18.43156653144493
18.431608948024106
18.431656608915223
18.431708998483437
18.431765553090848
18.43182566692352
18.43188869779356
18.431953973851737
18.432020799722043
18.43208846232735
18.432156237422706
18.43222339590913
18.43228921040103
18.432352962084394
18.432413947813853
18.43247148791583
18.432524933406963
18.432573674605816
18.432617148840567
18.432654848592634
18.43268632921235
18.432711215911922
18.4327292101125
18.43274009463493
18.432743737557214
