# vtk DataFile Version 2.0
Unstructured Grid Example
ASCII
DATASET UNSTRUCTURED_GRID

POINTS 961 float
0.400000004 0.01999999956 0
0.3866666556 0.01999999956 0
0.3733333348 0.01999999956 0
0.3600000144 0.01999999956 0
0.346666664 0.01999999956 0
0.3333333432 0.01999999956 0
0.3199999928 0.01999999956 0
0.3066666724 0.01999999956 0
0.293333322 0.01999999956 0
0.2800000012 0.01999999956 0
0.2666666804 0.01999999956 0
0.25333333 0.01999999956 0
0.2399999948 0.01999999956 0
0.226666674 0.01999999956 0
0.2133333384 0.01999999956 0
0.2000000028 0.01999999956 0
0.1866666676 0.01999999956 0
0.173333332 0.01999999956 0
0.1599999964 0.01999999956 0
0.1466666608 0.01999999956 0
0.1333333404 0.01999999956 0
0.1199999972 0.01999999956 0
0.1066666692 0.01999999956 0
0.0933333336 0.01999999956 0
0.0799999984 0.01999999956 0
0.06666667 0.01999999956 0
0.0533333348 0.01999999956 0
0.03999999912 0.01999999956 0
0.02666666732 0.01999999956 0
0.01333333364 0.01999999956 0
0.0 0.01999999956 0
0.400000004 0.00666666684 0
0.3866666556 0.00666666684 0
0.3733333348 0.00666666684 0
0.3600000144 0.00666666684 0
0.346666664 0.00666666684 0
0.3333333432 0.00666666684 0
0.3199999928 0.00666666684 0
0.3066666724 0.00666666684 0
0.293333322 0.00666666684 0
0.2800000012 0.00666666684 0
0.2666666804 0.00666666684 0
0.25333333 0.00666666684 0
0.2399999948 0.00666666684 0
0.226666674 0.00666666684 0
0.2133333384 0.00666666684 0
0.2000000028 0.00666666684 0
0.1866666676 0.00666666684 0
0.173333332 0.00666666684 0
0.1599999964 0.00666666684 0
0.1466666608 0.00666666684 0
0.1333333404 0.00666666684 0
0.1199999972 0.00666666684 0
0.1066666692 0.00666666684 0
0.0933333336 0.00666666684 0
0.0799999984 0.00666666684 0
0.06666667 0.00666666684 0
0.0533333348 0.00666666684 0
0.03999999912 0.00666666684 0
0.02666666732 0.00666666684 0
0.01333333364 0.00666666684 0
0.0 0.00666666684 0
0.400000004 -0.00666666684 0
0.3866666556 -0.00666666684 0
0.3733333348 -0.00666666684 0
0.3600000144 -0.00666666684 0
0.346666664 -0.00666666684 0
0.3333333432 -0.00666666684 0
0.3199999928 -0.00666666684 0
0.3066666724 -0.00666666684 0
0.293333322 -0.00666666684 0
0.2800000012 -0.00666666684 0
0.2666666804 -0.00666666684 0
0.25333333 -0.00666666684 0
0.2399999948 -0.00666666684 0
0.226666674 -0.00666666684 0
0.2133333384 -0.00666666684 0
0.2000000028 -0.00666666684 0
0.1866666676 -0.00666666684 0
0.173333332 -0.00666666684 0
0.1599999964 -0.00666666684 0
0.1466666608 -0.00666666684 0
0.1333333404 -0.00666666684 0
0.1199999972 -0.00666666684 0
0.1066666692 -0.00666666684 0
0.0933333336 -0.00666666684 0
0.0799999984 -0.00666666684 0
0.06666667 -0.00666666684 0
0.0533333348 -0.00666666684 0
0.03999999912 -0.00666666684 0
0.02666666732 -0.00666666684 0
0.01333333364 -0.00666666684 0
0.0 -0.00666666684 0
0.400000004 -0.01999999956 0
0.3866666556 -0.01999999956 0
0.3733333348 -0.01999999956 0
0.3600000144 -0.01999999956 0
0.346666664 -0.01999999956 0
0.3333333432 -0.01999999956 0
0.3199999928 -0.01999999956 0
0.3066666724 -0.01999999956 0
0.293333322 -0.01999999956 0
0.2800000012 -0.01999999956 0
0.2666666804 -0.01999999956 0
0.25333333 -0.01999999956 0
0.2399999948 -0.01999999956 0
0.226666674 -0.01999999956 0
0.2133333384 -0.01999999956 0
0.2000000028 -0.01999999956 0
0.1866666676 -0.01999999956 0
0.173333332 -0.01999999956 0
0.1599999964 -0.01999999956 0
0.1466666608 -0.01999999956 0
0.1333333404 -0.01999999956 0
0.1199999972 -0.01999999956 0
0.1066666692 -0.01999999956 0
0.0933333336 -0.01999999956 0
0.0799999984 -0.01999999956 0
0.06666667 -0.01999999956 0
0.0533333348 -0.01999999956 0
0.03999999912 -0.01999999956 0
0.02666666732 -0.01999999956 0
0.01333333364 -0.01999999956 0
0.0 -0.01999999956 0
0.400000004 -0.03333333508 0
0.3866666556 -0.03333333508 0
0.3733333348 -0.03333333508 0
0.3600000144 -0.03333333508 0
0.346666664 -0.03333333508 0
0.3333333432 -0.03333333508 0
0.3199999928 -0.03333333508 0
0.3066666724 -0.03333333508 0
0.293333322 -0.03333333508 0
0.2800000012 -0.03333333508 0
0.2666666804 -0.03333333508 0
0.25333333 -0.03333333508 0
0.2399999948 -0.03333333508 0
0.226666674 -0.03333333508 0
0.2133333384 -0.03333333508 0
0.2000000028 -0.03333333508 0
0.1866666676 -0.03333333508 0
0.173333332 -0.03333333508 0
0.1599999964 -0.03333333508 0
0.1466666608 -0.03333333508 0
0.1333333404 -0.03333333508 0
0.1199999972 -0.03333333508 0
0.1066666692 -0.03333333508 0
0.0933333336 -0.03333333508 0
0.0799999984 -0.03333333508 0
0.06666667 -0.03333333508 0
0.0533333348 -0.03333333508 0
0.03999999912 -0.03333333508 0
0.02666666732 -0.03333333508 0
0.01333333364 -0.03333333508 0
0.0 -0.03333333508 0
0.400000004 -0.0466666668 0
0.3866666556 -0.0466666668 0
0.3733333348 -0.0466666668 0
0.3600000144 -0.0466666668 0
0.346666664 -0.0466666668 0
0.3333333432 -0.0466666668 0
0.3199999928 -0.0466666668 0
0.3066666724 -0.0466666668 0
0.293333322 -0.0466666668 0
0.2800000012 -0.0466666668 0
0.2666666804 -0.0466666668 0
0.25333333 -0.0466666668 0
0.2399999948 -0.0466666668 0
0.226666674 -0.0466666668 0
0.2133333384 -0.0466666668 0
0.2000000028 -0.0466666668 0
0.1866666676 -0.0466666668 0
0.173333332 -0.0466666668 0
0.1599999964 -0.0466666668 0
0.1466666608 -0.0466666668 0
0.1333333404 -0.0466666668 0
0.1199999972 -0.0466666668 0
0.1066666692 -0.0466666668 0
0.0933333336 -0.0466666668 0
0.0799999984 -0.0466666668 0
0.06666667 -0.0466666668 0
0.0533333348 -0.0466666668 0
0.03999999912 -0.0466666668 0
0.02666666732 -0.0466666668 0
0.01333333364 -0.0466666668 0
0.0 -0.0466666668 0
0.400000004 -0.0599999988 0
0.3866666556 -0.0599999988 0
0.3733333348 -0.0599999988 0
0.3600000144 -0.0599999988 0
0.346666664 -0.0599999988 0
0.3333333432 -0.0599999988 0
0.3199999928 -0.0599999988 0
0.3066666724 -0.0599999988 0
0.293333322 -0.0599999988 0
0.2800000012 -0.0599999988 0
0.2666666804 -0.0599999988 0
0.25333333 -0.0599999988 0
0.2399999948 -0.0599999988 0
0.226666674 -0.0599999988 0
0.2133333384 -0.0599999988 0
0.2000000028 -0.0599999988 0
0.1866666676 -0.0599999988 0
0.173333332 -0.0599999988 0
0.1599999964 -0.0599999988 0
0.1466666608 -0.0599999988 0
0.1333333404 -0.0599999988 0
0.1199999972 -0.0599999988 0
0.1066666692 -0.0599999988 0
0.0933333336 -0.0599999988 0
0.0799999984 -0.0599999988 0
0.06666667 -0.0599999988 0
0.0533333348 -0.0599999988 0
0.03999999912 -0.0599999988 0
0.02666666732 -0.0599999988 0
0.01333333364 -0.0599999988 0
0.0 -0.0599999988 0
0.400000004 -0.0733333304 0
0.3866666556 -0.0733333304 0
0.3733333348 -0.0733333304 0
0.3600000144 -0.0733333304 0
0.346666664 -0.0733333304 0
0.3333333432 -0.0733333304 0
0.3199999928 -0.0733333304 0
0.3066666724 -0.0733333304 0
0.293333322 -0.0733333304 0
0.2800000012 -0.0733333304 0
0.2666666804 -0.0733333304 0
0.25333333 -0.0733333304 0
0.2399999948 -0.0733333304 0
0.226666674 -0.0733333304 0
0.2133333384 -0.0733333304 0
0.2000000028 -0.0733333304 0
0.1866666676 -0.0733333304 0
0.173333332 -0.0733333304 0
0.1599999964 -0.0733333304 0
0.1466666608 -0.0733333304 0
0.1333333404 -0.0733333304 0
0.1199999972 -0.0733333304 0
0.1066666692 -0.0733333304 0
0.0933333336 -0.0733333304 0
0.0799999984 -0.0733333304 0
0.06666667 -0.0733333304 0
0.0533333348 -0.0733333304 0
0.03999999912 -0.0733333304 0
0.02666666732 -0.0733333304 0
0.01333333364 -0.0733333304 0
0.0 -0.0733333304 0
0.400000004 -0.086666666 0
0.3866666556 -0.086666666 0
0.3733333348 -0.086666666 0
0.3600000144 -0.086666666 0
0.346666664 -0.086666666 0
0.3333333432 -0.086666666 0
0.3199999928 -0.086666666 0
0.3066666724 -0.086666666 0
0.293333322 -0.086666666 0
0.2800000012 -0.086666666 0
0.2666666804 -0.086666666 0
0.25333333 -0.086666666 0
0.2399999948 -0.086666666 0
0.226666674 -0.086666666 0
0.2133333384 -0.086666666 0
0.2000000028 -0.086666666 0
0.1866666676 -0.086666666 0
0.173333332 -0.086666666 0
0.1599999964 -0.086666666 0
0.1466666608 -0.086666666 0
0.1333333404 -0.086666666 0
0.1199999972 -0.086666666 0
0.1066666692 -0.086666666 0
0.0933333336 -0.086666666 0
0.0799999984 -0.086666666 0
0.06666667 -0.086666666 0
0.0533333348 -0.086666666 0
0.03999999912 -0.086666666 0
0.02666666732 -0.086666666 0
0.01333333364 -0.086666666 0
0.0 -0.086666666 0
0.400000004 -0.1000000016 0
0.3866666556 -0.1000000016 0
0.3733333348 -0.1000000016 0
0.3600000144 -0.1000000016 0
0.346666664 -0.1000000016 0
0.3333333432 -0.1000000016 0
0.3199999928 -0.1000000016 0
0.3066666724 -0.1000000016 0
0.293333322 -0.1000000016 0
0.2800000012 -0.1000000016 0
0.2666666804 -0.1000000016 0
0.25333333 -0.1000000016 0
0.2399999948 -0.1000000016 0
0.226666674 -0.1000000016 0
0.2133333384 -0.1000000016 0
0.2000000028 -0.1000000016 0
0.1866666676 -0.1000000016 0
0.173333332 -0.1000000016 0
0.1599999964 -0.1000000016 0
0.1466666608 -0.1000000016 0
0.1333333404 -0.1000000016 0
0.1199999972 -0.1000000016 0
0.1066666692 -0.1000000016 0
0.0933333336 -0.1000000016 0
0.0799999984 -0.1000000016 0
0.06666667 -0.1000000016 0
0.0533333348 -0.1000000016 0
0.03999999912 -0.1000000016 0
0.02666666732 -0.1000000016 0
0.01333333364 -0.1000000016 0
0.0 -0.1000000016 0
0.400000004 -0.1133333372 0
0.3866666556 -0.1133333372 0
0.3733333348 -0.1133333372 0
0.3600000144 -0.1133333372 0
0.346666664 -0.1133333372 0
0.3333333432 -0.1133333372 0
0.3199999928 -0.1133333372 0
0.3066666724 -0.1133333372 0
0.293333322 -0.1133333372 0
0.2800000012 -0.1133333372 0
0.2666666804 -0.1133333372 0
0.25333333 -0.1133333372 0
0.2399999948 -0.1133333372 0
0.226666674 -0.1133333372 0
0.2133333384 -0.1133333372 0
0.2000000028 -0.1133333372 0
0.1866666676 -0.1133333372 0
0.173333332 -0.1133333372 0
0.1599999964 -0.1133333372 0
0.1466666608 -0.1133333372 0
0.1333333404 -0.1133333372 0
0.1199999972 -0.1133333372 0
0.1066666692 -0.1133333372 0
0.0933333336 -0.1133333372 0
0.0799999984 -0.1133333372 0
0.06666667 -0.1133333372 0
0.0533333348 -0.1133333372 0
0.03999999912 -0.1133333372 0
0.02666666732 -0.1133333372 0
0.01333333364 -0.1133333372 0
0.0 -0.1133333372 0
0.400000004 -0.1266666652 0
0.3866666556 -0.1266666652 0
0.3733333348 -0.1266666652 0
[...]
POINT_DATA 961
SCALARS Temp float 1
LOOKUP_TABLE default
0.902463214933249
0.9389389088459327
0.966015243261914
0.9865264465284505
1.0022773117894395
1.0145086060821895
1.0241102117604268
1.0317314597666596
1.0378552061081892
1.0428462503003961
1.0469866952386198
1.050500166809997
1.0535694053684213
1.0563500445969451
1.058980815780179
1.061591622648333
1.0643110493881465
1.0672732407500218
1.070625148560636
1.07453482028794
1.0792014670467969
1.0848687838691131
1.0918417784383156
1.1005110082297773
1.1113850482214547
1.125136972880307
1.1426710648440668
1.1652212750963662
1.19450399497908
1.2329939957767286
1.28472456100697
0.9458633303957776
0.9815691326513687
1.0083654192601743
1.0287641444861035
1.0444597823197328
1.0566650221648313
1.0662555710408885
1.0738738584674088
1.0799990357747908
1.0849938844270097
1.0891393880091709
1.0926585639789361
1.095733843949693
1.0985207165082036
1.1011578600213785
1.103775178391779
1.1065012708197226
1.1094702867562412
1.112829142695004
1.1167457695499867
1.1214191196286372
1.1270923748492285
1.1340696132019845
1.142739721724493
1.1536083146047456
1.1673431356734867
1.1848385772538772
1.2073087379546903
1.2364278774569373
1.274539996689236
1.3249677327229874
2.972607283648725
2.978178937974009
2.993703674369902
3.0085384707553136
3.0213235482036422
3.031987467059443
3.040790478973304
3.0480499293705066
3.0540637464410256
3.059091243151315
3.0633530985102535
3.067037232190489
3.0703060679039123
3.0733036759054935
3.0761622540605287
3.079007991216187
3.0819665806313616
3.0851686357192096
3.0887552686024504
3.0928841438885737
3.0977362972121294
3.1035238668740837
3.1104986742632805
3.118961021364111
3.129266271812604
3.141822633944017
3.157061604770626
3.175326566560554
3.1964826079990005
3.218551769449417
3.2264796210732154
4.966488447580557
4.96959637830766
4.977326720449563
4.987184695285935
4.996859056065936
5.005600092926654
5.013222898680252
5.019769710904906
5.025367492601696
5.030168303529223
5.034324894997342
5.03798171282149
5.04127296855378
5.044323935341354
5.0472535999320165
5.050177898090606
5.053213224165698
5.0564800319240195
5.06010648007726
5.064232029570842
5.069010757163426
5.074613891258597
5.081230259547809
5.089062275450423
5.098311751514231
5.109143633038251
5.121600161122247
5.135397830502978
5.149449079549154
5.160460636886842
5.16488380728657
6.950031944591486
6.951747342682465
6.9564207668471205
6.962863693971472
6.969910955108097
6.976770644520691
6.983083037910588
6.988727775093463
6.993708587535551
6.998089507428647
7.001961611423092
7.005426165782831
7.008586722710997
7.011546085556259
7.014405830356484
7.017267197525905
7.020232699382893
7.023407971354688
7.026903549275523
7.030836193078775
7.035329184238941
7.0405106643341195
7.046508183404107
7.053436472884555
7.061372459589478
7.070306973611914
7.080053707000995
7.0900855107411935
7.099263084707438
7.105920455381355
7.108364068430408
8.926200962800554
8.927279854216453
8.93028789417885
8.934659903536366
8.939733600263365
8.944966791008353
8.95001141784061
8.95469137839637
8.958944001212501
8.962774638830524
8.966227122749011
8.969365862254772
8.972265651156162
8.975006309271249
8.977670184512913
8.980341333624697
8.983105623482171
8.986051146667254
8.989268484174977
8.992850283518232
8.996889432892985
9.001474790365455
9.006682693378794
9.0125617447635
9.019106653392376
9.02621560107313
9.033625644122582
9.040829846170336
9.047046867094869
9.051327297446893
9.052862942456896
10.896648653726977
10.897357144563541
10.899367656519379
10.902379244594242
10.906011394182851
10.909909396017893
10.913806601780642
10.917536065284565
10.92101392363129
10.924215033847332
10.92715249415164
10.929862912018883
10.93239676238613
10.934812524090932
10.937173318702566
10.939545137306226
10.941995977061502
10.944595287441858
10.94741322970286
10.950519195960018
10.953978891544967
10.957849072790417
10.962168583568948
10.966944153734843
10.972128983989693
10.977593240249188
10.983089466818992
10.98822912100865
10.992499782078614
10.995354190285312
10.996360579500799
12.862329918806415
12.862799095242352
12.864144381226133
12.866198924539326
12.868740123975986
12.871544150529907
12.87442522178658
12.877252225007233
12.87994743210936
12.88247629096381
12.884835551699584
12.887043069991488
12.889130250802083
12.891136939725914
12.893108143908519
12.895092007895727
12.897138540473371
12.899298594759028
12.901622668826143
12.904159050167245
12.906950740574981
12.91003050313475
12.913413181990379
12.917084647772235
12.920987004524427
12.925001467715475
12.928933907461275
12.932513108040832
12.935414798155161
12.937317815068091
12.937981986197777
14.82395044405725
14.824247648943665
14.825105743063778
14.8264332897974
14.828104204982132
14.829985423301828
14.831959488434554
14.833937029262511
14.835859662527252
14.837696582799303
14.839438655582578
14.841092369775804
14.842674835334288
14.84421010250822
14.845726602991782
14.847255420976508
14.848829082206617
14.850480514355269
14.852241867138872
14.854142851344896
14.856208215295347
14.858453961212383
14.860881867333845
14.863472205093725
14.866174974262501
14.868901367147185
14.871518972024141
14.873855947120088
14.87571900032654
14.876925700297937
14.877344046545918
16.78210704261919
16.782267493547614
16.782733300849195
16.783461608843762
16.78439206237622
16.785458959749416
16.786601897766324
16.78777248330707
16.788936840186295
16.790074912311706
16.791178146686597
16.792246709056577
16.793286957380875
16.79430944855421
16.79532745580786
16.796355890783396
16.797410489068266
16.798507078605805
16.799660767715466
16.800884874059406
16.80218940362347
16.803578903308043
16.80504952342621
16.80658536541918
16.808154457587424
16.80970540380969
16.811166435268994
16.812449001255164
16.81345743976835
16.814104209429836
16.814327290165693
18.737354232227638
18.7373938923478
18.73751097992228
18.73770013751591
18.737953404700228
18.73826136849502
18.738614319492207
18.73900317037424
18.73942005246946
18.739858573306773
18.74031383633016
18.740782292687346
18.741261511486126
18.74174992722106
18.742246580203098
18.742750862198974
18.74326227302515
18.743780173316242
18.744303526563616
18.744830620684514
18.745358762449303
18.745883951282615
18.74640053914216
18.7469009372787
18.747375426841675
18.747812199924702
18.748197757867004
18.748517772459145
18.748758424128166
18.748908062122403
18.74895886186789
18.846370393303147
18.846404350159656
18.84650490194417
18.846668282164863
18.84688879382398
18.847159521931374
18.847473088965412
18.84782230127969
18.848200623886353
18.848602441628767
18.84902315528865
18.84945913837566
18.849907609398933
18.8503664636306
18.85083407805471
18.851309104702562
18.851790263779954
18.852276129352923
18.85276490806331
18.853254209027064
18.853740806241376
18.854220406659497
18.854687434932618
18.855134888858483
18.85555430286753
18.85593590070376
18.856268998189034
18.856542690843238
18.856746800952855
18.856872964761518
18.85691566285471
18.95519099841747
18.955220629182673
18.95530856860207
18.955452075334133
18.955646942581126
18.955887953967615
18.956169388006185
18.956485473749463
18.956830756190627
18.957200326566095
18.95758994213323
18.95799603757838
18.95841566148071
18.958846368864585
18.959286078891
18.959732912335035
18.960185022563167
18.96064041745034
18.96109677747188
18.96155127314584
18.962000387551925
18.96243975922517
18.962864055655363
18.96326692149146
18.96364102156337
18.963978229030708
18.964269983455836
18.9645078227661
18.964684056281957
18.964792493129735
18.964829105036657
19.063825925633456
19.063852216141512
19.063930374213378
19.06405833492358
19.064232891297408
19.06444999549756
19.064705104101176
19.064993502810502
19.06531058500746
19.065652043465864
19.066013989390488
19.066392989317993
19.066786040003134
19.067190502717516
19.067604001491862
19.068024298020248
19.06844915728447
19.068876203893826
19.069302777024195
19.06972578988316
19.070141601339376
19.07054591467988
19.070933711060785
19.071299252413557
19.07163616144412
19.07193760971337
19.0721966199742
19.07240647464895
19.072561200732796
19.072656070783765
19.072688044058758
19.17228308888102
19.172306771567534
19.172377265385126
19.172492958178267
19.17265132109375
19.172849114680535
19.17308263239952
19.1733479366928
19.173641072818853
19.17395822527033
19.174295826689004
19.174650604643595
19.175019578506884
19.175400021350242
19.175789387884272
19.17618521902465
19.176585036530494
19.17698622891407
19.17738593769567
19.177780951151092
19.178167613635313
19.17854176405501
19.17889870816715
19.179233252010274
19.17953979596652
19.179812508880595
19.18004557932636
19.180233532097013
19.180371585684213
19.18045600796988
19.180484421063706
19.280568925050233
19.280590565311858
19.28065503796443
19.280761034212176
19.28090648440357
19.281088705372714
19.28130457913761
19.28155073013911
19.281823693160675
19.282120041626275
19.282436484554257
19.282769915617298
19.283117422010214
19.28347626385719
19.283843822802865
19.284217528529982
19.28459477572395
19.284972833147172
19.285348754237788
19.285719296729162
19.286080859122873
19.286429445987373
19.286760664372423
19.28706977319591
19.287351780192186
19.28760159912276
19.287814260200918
19.287985161330894
19.288110340927567
19.288186741145672
19.288212428470505
19.38324723068399
19.383267057640516
19.383326165853525
19.383423463505864
19.383557213111327
19.383725140932967
19.383924572661066
19.384152570205806
19.38440606611608
19.38468196945963
19.384977250811417
19.385288989632702
19.385614389152348
19.385950766794302
19.386295517328044
19.3866460559777
19.386999752920858
19.387353860872633
19.38770544491927
19.388051321875373
19.38838801635771
19.388711743953174
19.389018421994507
19.38930372579205
19.38956318223271
19.389792309522615
19.38998679447493
19.39014269580524
19.39025665826992
19.39032611428648
19.390349449873398
19.475038286659537
19.475056282822777
19.475109958442545
19.475198394578456
19.475320121547764
19.475473201790354
19.475655334549792
19.475863962577023
19.476096380149713
19.47634981993417
19.476621526025554
19.476908797315208
19.47720900480217
19.477519589097714
19.477838034505588
19.478161825629698
19.478488396696875
19.478815075044533
19.479139027226275
19.47945721436462
19.479766363041005
19.48006296051721
19.480343273540043
19.480603405448413
19.480839382320074
19.481047274574287
19.4812233452957
19.481364215178544
19.48146703226831
19.48152962875164
19.481550648176263
19.556300261153325
19.556316433407563
19.55636468616738
19.556444242486805
19.556553854845603
19.55669186885339
19.55685630500021
19.557044942562467
19.557255406662993
19.55748523925329
19.557731961069877
19.557993110078545
19.55826625914873
19.55854901797288
19.558839015291326
19.559133866304744
19.559431134197105
19.55972828686495
19.560022656372333
19.560311406929323
19.560591516715842
19.560859780892617
19.561112834236685
19.561347205647333
19.56155939504478
19.56174597762111
19.561903727264557
19.562029750598867
19.562121622469405
19.562177509226185
19.562196267641557
19.627527520605476
19.627541908207725
19.627584847875514
19.6276556818796
19.627753350749433
19.62787644278214
19.628023258434254
19.628191876668982
19.628380225243276
19.62858613853497
19.62880740960553
19.62904182357578
19.629287174522403
19.62954127002501
19.629801919411886
19.6300669097029
19.630333976959523
19.630600773773175
19.63086483940953
19.631123577533963
19.63137424591435
19.63161396416755
19.63183973752118
19.632048506845145
19.632237215840092
19.632402899399214
19.63254278582132
19.632654405766502
19.632735700863464
19.63278512137084
19.63280170384611
19.689319447093833
19.68933212312529
19.68936996274271
19.68943240966624
19.689518565499256
19.689627228490295
19.689756944536065
19.68990605982455
19.69007277761024
19.69025520519194
19.69045139734643
19.6906593848853
19.690877190194016
19.691102833213705
19.69133432409391
19.69156964578494
19.691806733159012
19.69204344906574
19.692277562862763
19.692506735515575
19.692728514833046
19.692940345812133
19.693139593853672
19.693323589468093
19.693489686047695
19.693635334069473
19.693758165354865
19.693856081558067
19.69392734141113
19.693970638437797
19.693985162324505
19.742347429817542
19.742358498499968
19.74239154566149
19.742446101852572
19.742521407256543
19.74261644218116
19.742729967592933
19.74286056696221
19.743006692109308
19.7431667012683
19.74333889511353
19.743521540938048
19.7437128865922
19.74391116711336
19.744114600562753
19.74432137573592
19.744529637326846
19.744737468684956
19.744942876806032
19.745143782903426
19.74533802141195
19.745523351478127
19.7456974786636
19.745858094118816
19.746002923647186
19.746129789537875
19.746236679723076
19.74632181952604
19.74638374178538
19.74642134884273
19.746433961217218
19.787322212626382
19.787331804320758
19.787360445771284
19.78740774177915
19.787473051517644
19.78755551259035
19.787654073310904
19.787767525995648
19.787894543962214
19.788033712303008
19.788183557637506
19.788342568430703
19.78850920728977
19.78868191773507
19.78885912229951
19.789039214126788
19.789220546759005
19.789401422049906
19.78958008004664
19.78975469354006
19.789923369538883
19.79008416095674
19.790235086317036
19.790374163588382
19.790499451458984
19.790609100541474
19.790701409919308
19.790774885215853
19.790828294947325
19.790860720023538
19.790871592436616
19.824961960646505
19.824970225922936
19.824994909532254
19.82503567933463
19.825091995884968
19.8251631314627
19.825248195824248
19.825346162717803
19.825455899740877
19.825576193192017
19.825705772577898
19.825843327609135
19.82598751893279
19.82613698473441
19.82629034041157
19.826446173083095
19.82660303485699
19.826759434646256
19.82691383168972
19.827064632935183
19.82721019605176
19.8273488407336
19.827478866242146
19.827598580338964
19.82770633377707
19.82780056252244
19.82787983387058
19.827942893391906
19.82798871022087
19.828016516626416
19.828025838819176
19.855964399676296
19.85597150338426
19.85599272021996
19.85602777091803
19.85607620125806
19.85613739716912
19.85621060533746
19.856294954374853
19.85638947895667
19.856493139912438
19.85660484441423
19.85672346017561
19.856847824768003
19.85697675188218
19.857109032068784
19.857243429392867
19.85737867727593
19.857513473215672
19.85764647496569
19.85777629988821
19.85790152885663
19.858020716861784
19.858132408441623
19.858235162284576
19.858327579962413
19.858408340693263
19.85847623894407
19.858530222413954
19.85856942849285
19.85859321596984
19.85860118963617
19.88098102898129
19.880987145012625
19.881005413545683
19.881035598783594
19.881077316710176
19.88113004715762
19.88119315040101
19.881265884157564
19.88134742320701
19.88143687571388
19.881533299929515
19.881635716094543
19.88174311452696
19.881854461470756
19.881968700537122
19.88208475091022
19.882201505056234
19.88231782556238
19.882432543220347
19.88254445771276
19.8826523419738
19.882754951974437
19.88285104022834
19.882939376710866
19.883018772834774
19.883088110156166
19.883146371152268
19.883192670094942
19.883226282554286
19.883246670952964
19.883253504335705
19.900596398371988
19.900601705447016
19.900617558855775
19.900643757493366
19.900679973460488
19.900725761826315
19.900780574156855
19.90084377233083
19.90091464467524
19.900992419376824
19.901076278448127
19.901165367803436
19.901258804329046
19.901355681316677
19.901455070347687
19.901556020594118
19.901657557848658
19.901758682873623
19.901858370813944
19.90195557275914
19.902049220292355
19.902138234465255
19.902221537656278
19.902298071480548
19.90236681696749
19.902426818492657
19.90247720923097
19.90251723652723
19.90254628604621
19.902563902613036
19.902569806292913
19.915310529660495
19.915315208319075
19.915329185420916
19.915352286290904
19.91538422583258
19.915424616604156
19.915472980090854
19.91552875818105
19.915591326718605
19.915660006756145
19.915734076466137
19.91581277983139
19.915895332918065
19.915980928942947
19.91606874042405
19.91615791922832
19.916247596504
19.916336882067608
19.916424864713633
19.9165106143289
19.91659318647993
19.91667163067985
19.91674500092915
19.916812371297762
19.916872853214254
19.91692561580202
19.91696990735296
19.91700507660997
19.917030592956433
19.917046063781765
19.9170512478488
19.925525340975387
19.92552957174763
19.92554221147302
19.925563104052742
19.925591994500145
19.92562853586649
19.925672298968486
19.92572278226397
19.925779423625908
19.925841610110176
19.925908688438014
19.925979972716636
19.926054750141386
19.92613228577933
19.92621182486997
19.926292593351295
19.926373798370836
19.926454628342697
19.926534253825885
19.92661182996691
19.926686501059407
19.926757408267555
19.926823699210065
19.92688454189001
19.92693913995899
19.92698675054963
19.927026702993878
19.927058417287057
19.927081421555194
19.92709536703819
19.927100039601346
19.931534811543
19.93153877414228
19.93155061307573
19.93157018326742
19.93159724760733
19.931631483208086
19.931672490231918
19.931719800833452
19.931772889893637
19.931831183917826
19.931894070677394
19.931960906356185
19.932031020910078
19.932103722671876
19.932178300726473
19.932254025702225
19.932330150603306
19.932405911240636
19.932480527423195
19.932553205571775
19.932623143240683
19.9326895365011
19.932751588945564
19.932808524631824
19.932859602148
19.932904130969167
19.93294148855732
19.932971137174995
19.93299263976114
19.933005673524217
19.933010040372007
19.933517926904752
19.933521800223538
19.93353337255064
19.93355250246372
19.933578958779577
19.933612426591573
19.93365251580046
19.933698769751054
19.93375067562349
19.933807673045422
19.933869163455896
19.93393451706166
19.934003078082636
19.934074169295933
19.934147094433175
19.93422113905675
19.93429557149496
19.93436964339304
19.934442591004096
19.93451363785557
19.93458199925507
19.934646889557882
19.934707530977782
19.934763166202956
19.93481307206435
19.934856575404755
19.93489306964511
19.934922031054747
19.934943034103682
19.934955764598882
19.93496002975871
