# vtk DataFile Version 2.0
Unstructured Grid Example
ASCII
DATASET UNSTRUCTURED_GRID

POINTS 961 float
0.400000004 0.01999999956 0
0.3866666556 0.01999999956 0
0.3733333348 0.01999999956 0
0.3600000144 0.01999999956 0
0.346666664 0.01999999956 0
0.3333333432 0.01999999956 0
0.3199999928 0.01999999956 0
0.3066666724 0.01999999956 0
0.293333322 0.01999999956 0
0.2800000012 0.01999999956 0
0.2666666804 0.01999999956 0
0.25333333 0.01999999956 0
0.2399999948 0.01999999956 0
0.226666674 0.01999999956 0
0.2133333384 0.01999999956 0
0.2000000028 0.01999999956 0
0.1866666676 0.01999999956 0
0.173333332 0.01999999956 0
0.1599999964 0.01999999956 0
0.1466666608 0.01999999956 0
0.1333333404 0.01999999956 0
0.1199999972 0.01999999956 0
0.1066666692 0.01999999956 0
0.0933333336 0.01999999956 0
0.0799999984 0.01999999956 0
0.06666667 0.01999999956 0
0.0533333348 0.01999999956 0
0.03999999912 0.01999999956 0
0.02666666732 0.01999999956 0
0.01333333364 0.01999999956 0
0.0 0.01999999956 0
0.400000004 0.00666666684 0
0.3866666556 0.00666666684 0
0.3733333348 0.00666666684 0
0.3600000144 0.00666666684 0
0.346666664 0.00666666684 0
0.3333333432 0.00666666684 0
0.3199999928 0.00666666684 0
0.3066666724 0.00666666684 0
0.293333322 0.00666666684 0
0.2800000012 0.00666666684 0
0.2666666804 0.00666666684 0
0.25333333 0.00666666684 0
0.2399999948 0.00666666684 0
0.226666674 0.00666666684 0
0.2133333384 0.00666666684 0
0.2000000028 0.00666666684 0
0.1866666676 0.00666666684 0
0.173333332 0.00666666684 0
0.1599999964 0.00666666684 0
0.1466666608 0.00666666684 0
0.1333333404 0.00666666684 0
0.1199999972 0.00666666684 0
0.1066666692 0.00666666684 0
0.0933333336 0.00666666684 0
0.0799999984 0.00666666684 0
0.06666667 0.00666666684 0
0.0533333348 0.00666666684 0
0.03999999912 0.00666666684 0
0.02666666732 0.00666666684 0
0.01333333364 0.00666666684 0
0.0 0.00666666684 0
0.400000004 -0.00666666684 0
0.3866666556 -0.00666666684 0
0.3733333348 -0.00666666684 0
0.3600000144 -0.00666666684 0
0.346666664 -0.00666666684 0
0.3333333432 -0.00666666684 0
0.3199999928 -0.00666666684 0
0.3066666724 -0.00666666684 0
0.293333322 -0.00666666684 0
0.2800000012 -0.00666666684 0
0.2666666804 -0.00666666684 0
0.25333333 -0.00666666684 0
0.2399999948 -0.00666666684 0
0.226666674 -0.00666666684 0
0.2133333384 -0.00666666684 0
0.2000000028 -0.00666666684 0
0.1866666676 -0.00666666684 0
0.173333332 -0.00666666684 0
0.1599999964 -0.00666666684 0
0.1466666608 -0.00666666684 0
0.1333333404 -0.00666666684 0
0.1199999972 -0.00666666684 0
0.1066666692 -0.00666666684 0
0.0933333336 -0.00666666684 0
0.0799999984 -0.00666666684 0
0.06666667 -0.00666666684 0
0.0533333348 -0.00666666684 0
0.03999999912 -0.00666666684 0
0.02666666732 -0.00666666684 0
0.01333333364 -0.00666666684 0
0.0 -0.00666666684 0
0.400000004 -0.01999999956 0
0.3866666556 -0.01999999956 0
0.3733333348 -0.01999999956 0
0.3600000144 -0.01999999956 0
0.346666664 -0.01999999956 0
0.3333333432 -0.01999999956 0
0.3199999928 -0.01999999956 0
0.3066666724 -0.01999999956 0
0.293333322 -0.01999999956 0
0.2800000012 -0.01999999956 0
0.2666666804 -0.01999999956 0
0.25333333 -0.01999999956 0
0.2399999948 -0.01999999956 0
0.226666674 -0.01999999956 0
0.2133333384 -0.01999999956 0
0.2000000028 -0.01999999956 0
0.1866666676 -0.01999999956 0
0.173333332 -0.01999999956 0
0.1599999964 -0.01999999956 0
0.1466666608 -0.01999999956 0
0.1333333404 -0.01999999956 0
0.1199999972 -0.01999999956 0
0.1066666692 -0.01999999956 0
0.0933333336 -0.01999999956 0
0.0799999984 -0.01999999956 0
0.06666667 -0.01999999956 0
0.0533333348 -0.01999999956 0
0.03999999912 -0.01999999956 0
0.02666666732 -0.01999999956 0
0.01333333364 -0.01999999956 0
0.0 -0.01999999956 0
0.400000004 -0.03333333508 0
0.3866666556 -0.03333333508 0
0.3733333348 -0.03333333508 0
0.3600000144 -0.03333333508 0
0.346666664 -0.03333333508 0
0.3333333432 -0.03333333508 0
0.3199999928 -0.03333333508 0
0.3066666724 -0.03333333508 0
0.293333322 -0.03333333508 0
0.2800000012 -0.03333333508 0
0.2666666804 -0.03333333508 0
0.25333333 -0.03333333508 0
0.2399999948 -0.03333333508 0
0.226666674 -0.03333333508 0
0.2133333384 -0.03333333508 0
0.2000000028 -0.03333333508 0
0.1866666676 -0.03333333508 0
0.173333332 -0.03333333508 0
0.1599999964 -0.03333333508 0
0.1466666608 -0.03333333508 0
0.1333333404 -0.03333333508 0
0.1199999972 -0.03333333508 0
0.1066666692 -0.03333333508 0
0.0933333336 -0.03333333508 0
0.0799999984 -0.03333333508 0
0.06666667 -0.03333333508 0
0.0533333348 -0.03333333508 0
0.03999999912 -0.03333333508 0
0.02666666732 -0.03333333508 0
0.01333333364 -0.03333333508 0
0.0 -0.03333333508 0
0.400000004 -0.0466666668 0
0.3866666556 -0.0466666668 0
0.3733333348 -0.0466666668 0
0.3600000144 -0.0466666668 0
0.346666664 -0.0466666668 0
0.3333333432 -0.0466666668 0
0.3199999928 -0.0466666668 0
0.3066666724 -0.0466666668 0
0.293333322 -0.0466666668 0
0.2800000012 -0.0466666668 0
0.2666666804 -0.0466666668 0
0.25333333 -0.0466666668 0
0.2399999948 -0.0466666668 0
0.226666674 -0.0466666668 0
0.2133333384 -0.0466666668 0
0.2000000028 -0.0466666668 0
0.1866666676 -0.0466666668 0
0.173333332 -0.0466666668 0
0.1599999964 -0.0466666668 0
0.1466666608 -0.0466666668 0
0.1333333404 -0.0466666668 0
0.1199999972 -0.0466666668 0
0.1066666692 -0.0466666668 0
0.0933333336 -0.0466666668 0
0.0799999984 -0.0466666668 0
0.06666667 -0.0466666668 0
0.0533333348 -0.0466666668 0
0.03999999912 -0.0466666668 0
0.02666666732 -0.0466666668 0
0.01333333364 -0.0466666668 0
0.0 -0.0466666668 0
0.400000004 -0.0599999988 0
0.3866666556 -0.0599999988 0
0.3733333348 -0.0599999988 0
0.3600000144 -0.0599999988 0
0.346666664 -0.0599999988 0
0.3333333432 -0.0599999988 0
0.3199999928 -0.0599999988 0
0.3066666724 -0.0599999988 0
0.293333322 -0.0599999988 0
0.2800000012 -0.0599999988 0
0.2666666804 -0.0599999988 0
0.25333333 -0.0599999988 0
0.2399999948 -0.0599999988 0
0.226666674 -0.0599999988 0
0.2133333384 -0.0599999988 0
0.2000000028 -0.0599999988 0
0.1866666676 -0.0599999988 0
0.173333332 -0.0599999988 0
0.1599999964 -0.0599999988 0
0.1466666608 -0.0599999988 0
0.1333333404 -0.0599999988 0
0.1199999972 -0.0599999988 0
0.1066666692 -0.0599999988 0
0.0933333336 -0.0599999988 0
0.0799999984 -0.0599999988 0
0.06666667 -0.0599999988 0
0.0533333348 -0.0599999988 0
0.03999999912 -0.0599999988 0
0.02666666732 -0.0599999988 0
0.01333333364 -0.0599999988 0
0.0 -0.0599999988 0
0.400000004 -0.0733333304 0
0.3866666556 -0.0733333304 0
0.3733333348 -0.0733333304 0
0.3600000144 -0.0733333304 0
0.346666664 -0.0733333304 0
0.3333333432 -0.0733333304 0
0.3199999928 -0.0733333304 0
0.3066666724 -0.0733333304 0
0.293333322 -0.0733333304 0
0.2800000012 -0.0733333304 0
0.2666666804 -0.0733333304 0
0.25333333 -0.0733333304 0
0.2399999948 -0.0733333304 0
0.226666674 -0.0733333304 0
0.2133333384 -0.0733333304 0
0.2000000028 -0.0733333304 0
0.1866666676 -0.0733333304 0
0.173333332 -0.0733333304 0
0.1599999964 -0.0733333304 0
0.1466666608 -0.0733333304 0
0.1333333404 -0.0733333304 0
0.1199999972 -0.0733333304 0
0.1066666692 -0.0733333304 0
0.0933333336 -0.0733333304 0
0.0799999984 -0.0733333304 0
0.06666667 -0.0733333304 0
0.0533333348 -0.0733333304 0
0.03999999912 -0.0733333304 0
0.02666666732 -0.0733333304 0
0.01333333364 -0.0733333304 0
0.0 -0.0733333304 0
0.400000004 -0.086666666 0
0.3866666556 -0.086666666 0
0.3733333348 -0.086666666 0
0.3600000144 -0.086666666 0
0.346666664 -0.086666666 0
0.3333333432 -0.086666666 0
0.3199999928 -0.086666666 0
0.3066666724 -0.086666666 0
0.293333322 -0.086666666 0
0.2800000012 -0.086666666 0
0.2666666804 -0.086666666 0
0.25333333 -0.086666666 0
0.2399999948 -0.086666666 0
0.226666674 -0.086666666 0
0.2133333384 -0.086666666 0
0.2000000028 -0.086666666 0
0.1866666676 -0.086666666 0
0.173333332 -0.086666666 0
0.1599999964 -0.086666666 0
0.1466666608 -0.086666666 0
0.1333333404 -0.086666666 0
0.1199999972 -0.086666666 0
0.1066666692 -0.086666666 0
0.0933333336 -0.086666666 0
0.0799999984 -0.086666666 0
0.06666667 -0.086666666 0
0.0533333348 -0.086666666 0
0.03999999912 -0.086666666 0
0.02666666732 -0.086666666 0
0.01333333364 -0.086666666 0
0.0 -0.086666666 0
0.400000004 -0.1000000016 0
0.3866666556 -0.1000000016 0
0.3733333348 -0.1000000016 0
0.3600000144 -0.1000000016 0
0.346666664 -0.1000000016 0
0.3333333432 -0.1000000016 0
0.3199999928 -0.1000000016 0
0.3066666724 -0.1000000016 0
0.293333322 -0.1000000016 0
0.2800000012 -0.1000000016 0
0.2666666804 -0.1000000016 0
0.25333333 -0.1000000016 0
0.2399999948 -0.1000000016 0
0.226666674 -0.1000000016 0
0.2133333384 -0.1000000016 0
0.2000000028 -0.1000000016 0
0.1866666676 -0.1000000016 0
0.173333332 -0.1000000016 0
0.1599999964 -0.1000000016 0
0.1466666608 -0.1000000016 0
0.1333333404 -0.1000000016 0
0.1199999972 -0.1000000016 0
0.1066666692 -0.1000000016 0
0.0933333336 -0.1000000016 0
0.0799999984 -0.1000000016 0
0.06666667 -0.1000000016 0
0.0533333348 -0.1000000016 0
0.03999999912 -0.1000000016 0
0.02666666732 -0.1000000016 0
0.01333333364 -0.1000000016 0
0.0 -0.1000000016 0
0.400000004 -0.1133333372 0
0.3866666556 -0.1133333372 0
0.3733333348 -0.1133333372 0
0.3600000144 -0.1133333372 0
0.346666664 -0.1133333372 0
0.3333333432 -0.1133333372 0
0.3199999928 -0.1133333372 0
0.3066666724 -0.1133333372 0
0.293333322 -0.1133333372 0
0.2800000012 -0.1133333372 0
0.2666666804 -0.1133333372 0
0.25333333 -0.1133333372 0
0.2399999948 -0.1133333372 0
0.226666674 -0.1133333372 0
0.2133333384 -0.1133333372 0
0.2000000028 -0.1133333372 0
0.1866666676 -0.1133333372 0
0.173333332 -0.1133333372 0
0.1599999964 -0.1133333372 0
0.1466666608 -0.1133333372 0
0.1333333404 -0.1133333372 0
0.1199999972 -0.1133333372 0
0.1066666692 -0.1133333372 0
0.0933333336 -0.1133333372 0
0.0799999984 -0.1133333372 0
0.06666667 -0.1133333372 0
0.0533333348 -0.1133333372 0
0.03999999912 -0.1133333372 0
0.02666666732 -0.1133333372 0
0.01333333364 -0.1133333372 0
0.0 -0.1133333372 0
0.400000004 -0.1266666652 0
0.3866666556 -0.1266666652 0
0.3733333348 -0.1266666652 0
[...]
POINT_DATA 961
SCALARS Temp float 1
LOOKUP_TABLE default
0.8336391550202276
0.8671450205494132
0.8916306492553023
0.9098440139613388
0.9235557707760964
0.9339812564022132
0.9419883909814071
0.9482056076054246
0.9530947325353121
0.9569989782570387
0.9601779959693622
0.9628320455102368
0.9651195870139364
0.967171001021089
0.9690987692846693
0.9710055186924931
0.9729914251208315
0.9751609958187681
0.9776302047651457
0.9805346690862782
0.9840396181899215
0.9883530827135332
0.9937426596793695
1.000559518596089
1.0092706064368941
1.0205045481406427
1.0351172582818426
1.054288312730412
1.0796690508417137
1.113649554294589
1.1600754867370928
0.8767685991246144
0.9095949933454661
0.9338229473847367
0.9519367503254872
0.9656010815256013
0.9760054976003668
0.984004759135523
0.9902209653341992
0.9951125881485442
0.9990210534893567
1.0022050569093184
1.004864370394125
1.0071572371871491
1.0092139669817286
1.0111470519801447
1.0130591765566015
1.0150505887544756
1.0172258623667336
1.0197010082259186
1.0226116162399896
1.026122771801279
1.030442145767161
1.0358366131845274
1.0426559655224203
1.0513646130053187
1.0625864960151772
1.0771686953579152
1.0962728099570134
1.121512351768523
1.1551538766888223
1.200446107768652
2.8935915570273356
2.8986005386106983
2.9125608448854554
2.925696908782971
2.9368257748393165
2.9459387656372944
2.95331834671796
2.9592863495212063
2.9641357266835042
2.9681150386746693
2.9714302830914447
2.974251839527835
2.9767223970579697
2.9789645189895504
2.9810874158438105
2.9831930160007962
2.985381627496104
2.9877574852553717
2.9904344769413456
2.9935423951159046
2.9972340486338864
3.0016934379213915
3.0071450382765748
3.0138636899495412
3.022183030136995
3.03249660066798
3.0452349402526235
3.060769310814668
3.079063069893065
3.0984410222377727
3.10539945006653
4.881681981947456
4.884450566782727
4.891298035389974
4.89995726146409
4.90833889536594
4.915794230429353
4.922187863300994
4.927584961529355
4.932120361891204
4.93594468345754
4.939203027080622
4.9420278326958895
4.944538123340276
4.946841576969353
4.949037734563836
4.951221658276609
4.953487785664281
4.95593386193557
4.958664951179905
4.961797492357787
4.965463240127422
4.96981269149499
4.9750168779649035
4.981265394548391
4.98875554213272
4.9976617509458485
5.008060240224466
5.019747181651245
5.031806092739558
5.041332890743417
5.045180959206334
6.861755121258943
6.863260643738634
6.867349215652791
6.872946057796029
6.879005890407983
6.884829084072262
6.8901115200682534
6.894764308991951
6.898806887316625
6.9023084825284675
6.905358098508285
6.90804976275997
6.910476030710269
6.912725926374952
6.914885187925417
6.917037730673945
6.919267740693503
6.921662002074768
6.9243121988250556
6.927316882459041
6.930782622403324
6.9348235206186555
6.93955746519447
6.9450963954551455
6.951525137286139
6.9588591074655985
6.966962981114931
6.975402598067828
6.9831970306438595
6.9888889822714475
6.99098454821993
8.83640953627683
8.83734491243687
8.839945360371214
8.843703945287922
8.848030054554968
8.85244589247256
8.856651503622619
8.860502265805065
8.863953946271183
8.867020661016328
8.869747888611508
8.872196451126563
8.874433690532516
8.876529117080722
8.878552691185444
8.880574641002505
8.882666121380641
8.884900181970275
8.887352637552334
8.890102380420858
8.893230503413918
8.89681729816016
8.900935528046267
8.90563765477081
8.910933128933
8.916750546680658
8.922879379333688
8.928894058330199
8.934123632309003
8.937742751763002
8.93904460304407
10.807010344249754
10.807617987049358
10.809338341026079
10.811903482774664
10.814976409904435
10.818245847432323
10.821481460173189
10.824542981941498
10.827363955643898
10.82992891286042
10.832254515960951
10.834376242948213
10.836339890196838
10.838196611029081
10.84000028785254
10.841806379122826
10.843671612566789
10.845653988405205
10.847812649722234
10.85020712931816
10.852895350434798
10.855929553673157
10.859348911138971
10.863167369972443
10.867354855485031
10.871810858085144
10.876332868603777
10.880593977722565
10.884156064516532
10.886546782172728
10.8873914560474
12.77425340588978
12.774652328540325
12.775793958165623
12.777530797559848
12.779666944699933
12.782006914212666
12.784390410646202
12.786706509725903
12.78889171563566
12.79092018061793
12.792792676772658
12.794527322909405
12.796152868870438
12.797704300710938
12.799220171876724
12.800741113326492
12.802309050810624
12.803966680000286
12.805756808395433
12.807721135775925
12.80989796327423
12.812318222974055
12.814999041164992
12.81793418618913
12.82108099789563
12.824344932870886
12.827566074774406
12.830516526712787
12.83292040356065
12.834502316918618
12.835055375267283
14.738582901074123
14.738834031355085
14.739557909549728
14.740674180088112
14.742072473293057
14.743637064516193
14.745266822844798
14.746885973859124
14.748446247768232
14.749923444847008
14.751311888687368
14.75261890007894
14.753860331289307
14.755057375128988
14.756234445762177
14.75741784761798
14.75863493724066
14.759913462961437
14.761280798171345
14.762762759056269
14.76438165812081
14.766153220976133
14.768081956185044
14.770154829035128
14.772333478523318
14.774546433348593
14.776684407482147
14.778603329326696
14.780139468337321
14.781137256633466
14.78148367495034
16.70032452735293
16.700459648018374
16.700851386197247
16.701462246994762
16.702239611465743
16.703126528746367
16.70407109133454
16.705032239889483
16.705981787219994
16.70690360534458
16.70779141715609
16.708646240404025
16.70947412646121
16.710284426547826
16.71108855422348
16.711899137551548
16.71272942516022
16.71359278098677
16.714502117244088
16.71546910193377
16.716502964474657
16.7176087308737
16.718784729258054
16.720019405694075
16.72128773258822
16.722548108781787
16.72374127460529
16.724793146545856
16.725622974456158
16.726156422479427
16.726340633708144
18.659751649733412
18.659785145374073
18.65988399274134
18.660043556707027
18.660256966603306
18.660516127191237
18.660812727485375
18.66113903295615
18.661488388227937
18.661855420534785
18.662236036448775
18.662627277775293
18.663027114065603
18.66343422331175
18.66384777444749
18.664267220883012
18.66469210808436
18.66512188068808
18.665555680987772
18.66599212814585
18.666429070034958
18.66686331077466
18.66729031789954
18.66770395931089
18.668096319433783
18.668457704807064
18.66877695250761
18.66904213814274
18.669241701117894
18.66936585724632
18.66940801856752
18.76902647858979
18.76905520906407
18.76914026286972
18.769278393919613
18.769464701262994
18.769693251891173
18.769957737024626
18.770252028444304
18.770570580447565
18.770908643714748
18.77126233565648
18.77162859293031
18.772005055456717
18.77238992081202
18.77278178109732
18.77317945464374
18.773581821005056
18.773987651626655
18.774395434803836
18.77480319150408
18.775208281354953
18.775607208268312
18.77599543403073
18.77636724509352
18.77671570539417
18.777032766150302
18.777309587889302
18.77753710813084
18.777706836022364
18.77781177333087
18.777847292492734
18.87813197200841
18.878157129168734
18.878231781685827
18.8783535750059
18.87851890044228
18.878723291199567
18.878961858235854
18.879229680908924
18.879522116401553
18.8798349906756
18.880164693639156
18.880508182556877
18.88086292391715
18.881226801240125
18.88159799693429
18.881974860357467
18.882355772893938
18.882739006744764
18.883122580501364
18.883504112757407
18.883880677247443
18.8842486713075
18.88460370571349
18.88494055307412
18.885253172756084
18.885534856485
18.88577851791147
18.885977131805383
18.8861242966577
18.886214848479966
18.886245422232435
18.987075649537548
18.987098083296303
18.987164773590166
18.987273952737088
18.987422877318714
18.987608087697122
18.987825704114915
18.98807170328767
18.988342153453694
18.988633373742974
18.988942031064614
18.989265167732377
18.989600178120725
18.989944753351118
18.99029679810532
18.99065433017124
18.991015374058023
18.991377847744637
18.991739448170577
18.992097539348514
18.99244904850442
18.992790382064427
18.99311736742889
18.99342524995435
18.993708752227622
18.993962222962406
18.99417988222006
18.994356157566063
18.994486087085928
18.9945657386142
18.99459258059373
19.09586333365599
19.09588367299851
19.09594421843029
19.096043595384486
19.09617964784906
19.09634961378159
19.09655033154528
19.096778438789457
19.097030551370995
19.09730339272271
19.097593883052635
19.097899176666495
19.098216658640627
19.09854391408553
19.098878670920467
19.09921872494199
19.09956185812238
19.09990575030116
19.100247891061024
19.100585496868792
19.100915439422405
19.10123419599992
19.1015378253041
19.101821991966773
19.102082039597413
19.10231312965138
19.102510444669054
19.102669446897604
19.102786172721274
19.102857527298813
19.102881538108893
19.204499570563804
19.20451829867547
19.204574103299606
19.20466587513349
19.204791858772293
19.2049497756054
19.205136972461595
19.20535056811679
19.205587591581107
19.20584508672765
19.206120191295973
19.206410176634584
19.206712455364706
19.207024566503456
19.207344136741117
19.207668825038525
19.207996260731285
19.208323975677246
19.20864933759639
19.2089694900348
19.20928130472212
19.209581355803966
19.20986591732495
19.210131002520182
19.210372440366132
19.210586000835285
19.210767563659328
19.210913321083407
19.21101999932591
19.211085073197285
19.211106946556924
19.308078423329622
19.30809575827655
19.308147448909267
19.30823257398464
19.30834966517794
19.308496796071378
19.308671692428803
19.308871842644162
19.309094606329086
19.309337299112595
19.309597261280377
19.309871896273123
19.31015868394182
19.310455175746625
19.310758969178828
19.31106766724315
19.311378832290416
19.31168993471406
19.311998303485485
19.312301083791276
19.31259520700645
19.31287738115066
19.313144101587735
19.313391697166594
19.313616404754654
19.31381448024169
19.31398233936293
19.31411671950502
19.314214850725342
19.31427461719895
19.314294690391137
19.40177611813875
19.401792072653297
19.40183967211188
19.40191813999082
19.402026231452417
19.40216229921228
19.4023243769327
19.40251026362085
19.40271760955333
19.402943984830504
19.40318693804696
19.403444031645154
19.403712857552502
19.403991038753894
19.40427621328321
19.40456600537833
19.404857992099327
19.40514966569415
19.405438398151883
19.405721412709447
19.405995766820684
19.40625835344949
19.40650591930969
19.406735112694648
19.406942552670028
19.407124925719692
19.40727910295326
19.407402270179084
19.407492061881218
19.407546685051322
19.407565019755257
19.485808906106232
19.485823490519454
19.485867019385687
19.485938831419414
19.486037861585913
19.486162690780834
19.48631160994693
19.48648268535299
19.486673827107378
19.486882844597577
19.487107496198384
19.48734552079143
19.48759465394695
19.487852633388776
19.48811718986596
19.488386027294318
19.488656799484882
19.488927083450314
19.48919435502916
19.489455970963476
19.489709161182947
19.489951037008865
19.490178613173022
19.49038885431988
19.4905787374316
19.49074533505722
19.49088591280342
19.490998034593726
19.491079668903122
19.49112928528656
19.49114593178791
19.560499964629738
19.560513199923477
19.560552713836255
19.56061793953134
19.560707960666342
19.56082154945838
19.560957216667806
19.561113262621753
19.56128783222855
19.5614789598907
19.561684611422187
19.561902711666043
19.5621311602074
19.56236783907749
19.562610608500293
19.562857293839432
19.563105670135513
19.5633534439448
19.563598237475915
19.56383757850957
19.564068899151536
19.564289548146128
19.564496814235387
19.564687969668363
19.56486032548057
19.565011302649904
19.565138513190664
19.565239845801738
19.56531355092508
19.565358316972556
19.565373330831072
19.626259705531364
19.62627163040636
19.626307240108
19.626366046919724
19.626447260007055
19.626549814963447
19.626672413222202
19.626813562293776
19.626971620212426
19.627144832009897
19.627331364981536
19.62752933263219
19.627736809396833
19.627951839487615
19.628172436031146
19.628396573086064
19.628622176082658
19.628847110165218
19.629069170715482
19.62928607893407
19.62949548491548
19.62969498211482
19.62988213051476
19.63005449632218
19.630209700293964
19.630345478258256
19.630459748580947
19.630550682155786
19.63061677102313
19.630656889175665
19.63067034042239
19.683563585642663
19.683574259408687
19.683606138689925
19.683658802989022
19.68373156876885
19.683823512630553
19.683933502681633
19.684060230507114
19.684202247272236
19.68435799342617
19.684525828349372
19.684704050987317
19.684890913343462
19.68508462975239
19.68528337831636
19.6854852966368
19.685688476621777
19.685890957679852
19.68609072192197
19.686285693710836
19.68647374547628
19.68665271300716
19.686820417511072
19.686974701209977
19.68711346920238
19.687234740749844
19.687336705418772
19.687417780466987
19.687476666523608
19.687512396475157
19.687524373683985
19.73292897777455
19.732938480420064
19.732966865874317
19.733013771106275
19.733078604772352
19.733160565563292
19.73325866737069
19.733371764861644
19.73349858295248
19.733637741079267
19.733787778135696
19.7339471701965
19.734114342718854
19.734287679784718
19.734465527042822
19.73464619010933
19.734827932536984
19.735008972551057
19.73518748159376
19.7353615865594
19.735529377215265
19.735688921453214
19.735838285749956
19.735975566704912
19.736098927078206
19.736206639150996
19.736297131471822
19.736369036048558
19.736421233748764
19.73645289385398
19.736463504807755
19.77489093965828
19.774899370169823
19.774924555866665
19.774966182778815
19.775023738587546
19.775096527270993
19.775183689449502
19.775284222982304
19.77539700716113
19.77552082262766
19.77565437239543
19.775796297067245
19.775945185782724
19.77609958515553
19.776258003152407
19.776418909370896
19.776580735243286
19.776741873300487
19.776900678040285
19.777055469903125
19.777204543511175
19.777346182353806
19.77747867744429
19.777600355052126
19.777709607621084
19.777804930408582
19.77788496047305
19.77794851561485
19.77799463157448
19.778022594229206
19.778031964501945
19.809980263880426
19.80998773757596
19.81001006688473
19.810046979344254
19.810098029704662
19.810162611727222
19.810239974774003
19.810329240528432
19.810429422994105
19.81053944494289
19.81065815571625
19.810784344325164
19.810916749244136
19.811054066898
19.811194956081582
19.81133803952469
19.811481905633805
19.811625109516232
19.811766175414757
19.81190360174846
19.812035869649186
19.812161456803224
19.81227885429758
19.812386590927552
19.81248325971968
19.812567548955776
19.81263827481
19.81269441364425
19.81273513267348
19.81275981635796
19.81276808673753
19.838701576007963
19.838708221511048
19.838728077914816
19.83876090725749
19.838806320172502
19.83886378550614
19.83893264399773
19.839012122002888
19.839101348191292
19.839199367261706
19.839305155137314
19.839417630316763
19.839535662652594
19.83965808133586
19.839783679590894
19.839911217097193
19.84003942275727
19.840166996913148
19.840292614799186
19.84041493218431
19.840532593886646
19.84064424667386
19.84074855442617
19.840844219478832
19.84093000547096
19.8410047637709
19.84106746099571
19.841117206018456
19.841153275479634
19.841175135635154
19.841182459128785
19.861514973881363
19.861520930110885
19.861538728108908
19.861568157767653
19.86160887492202
19.861660409321605
19.86172217609515
19.86179348719552
19.861873565552536
19.86196155667968
19.862056541815456
19.862157547873174
19.862263555366432
19.862373505906938
19.862486307007657
19.86260083505572
19.862715938740536
19.862830442052463
19.862943148369805
19.863052846400702
19.863158318507963
19.86325835269972
19.86335175632672
19.863437374965468
19.86351411229896
19.863580952883925
19.863636985649688
19.863681426791356
19.86371364129842
19.863733161311387
19.863739700169493
19.87881938408669
19.878824797540005
19.87884097445503
19.878867726174683
19.878904743392457
19.878951602923443
19.879007777539513
19.8790726457429
19.879145504029562
19.87922557693171
19.879312028608105
19.879403971722933
19.879500474695647
19.879600568776556
19.879703252865422
19.87980749682298
19.879912245306013
19.88001642125836
19.880118930372912
19.88021866715324
19.880314522990826
19.880405397368605
19.880490210370542
19.880567919636963
19.880637537963718
19.880698153289426
19.880748949167288
19.88078922458369
19.880818412525173
19.880836095750386
19.880842018827302
19.890939010575394
19.89094403302328
19.890959042058284
19.890983864236823
19.89101821499943
19.89106170462366
19.891113846942655
19.89117406797571
19.89124171688786
19.89131607495387
19.891396366064598
19.891481764851378
19.891571403447408
19.89166437823951
19.891759754662186
19.891856570704952
19.891953840982257
19.8920505605164
19.89214570940615
19.892238258915732
19.89232717932449
19.89241145052881
19.89249007368016
19.892562086758055
19.89262658055509
19.89268271671359
19.89272974608752
19.892767026429578
19.89279403891216
19.892810402119412
19.892815882703147
19.89811304717346
19.898117833774897
19.89813213833719
19.898155796502802
19.89818853850144
19.898229994627087
19.898279703304926
19.898337119055203
19.898401622688702
19.898472529638163
19.898549099824137
19.89863054533047
19.89871603687059
19.898804710336456
19.898895671564105
19.898987999940317
19.899080752591853
19.89917296832001
19.899263672369475
19.899351882511162
19.89943661673586
19.89951690348022
19.89959179273346
19.899660370779216
19.899721775218957
19.89977521185205
19.899819971792507
19.899855447902326
19.899881150111653
19.89989671836846
19.899901932486735
19.900487943253296
19.900492651040796
19.900506720181014
19.90052998933817
19.90056219366196
19.90060297010838
19.90065186529238
19.900708343232793
19.90077179529569
19.90084154831769
19.90091687425985
19.900996997733905
19.90108110237022
19.9011683372975
19.90125782189671
19.9013486494378
19.901439891305166
19.901530600978976
19.901619818833424
19.90170657821393
19.901789913075557
19.901868868081273
19.901942509530283
19.902009939822563
19.902070312162856
19.90212284705769
19.90216684902035
19.902201722590473
19.902226987258345
19.90224229007128
19.90224741521599
