# vtk DataFile Version 2.0
Unstructured Grid Example
ASCII
DATASET UNSTRUCTURED_GRID

POINTS 961 float
0.400000004 0.01999999956 0
0.3866666556 0.01999999956 0
0.3733333348 0.01999999956 0
0.3600000144 0.01999999956 0
0.346666664 0.01999999956 0
0.3333333432 0.01999999956 0
0.3199999928 0.01999999956 0
0.3066666724 0.01999999956 0
0.293333322 0.01999999956 0
0.2800000012 0.01999999956 0
0.2666666804 0.01999999956 0
0.25333333 0.01999999956 0
0.2399999948 0.01999999956 0
0.226666674 0.01999999956 0
0.2133333384 0.01999999956 0
0.2000000028 0.01999999956 0
0.1866666676 0.01999999956 0
0.173333332 0.01999999956 0
0.1599999964 0.01999999956 0
0.1466666608 0.01999999956 0
0.1333333404 0.01999999956 0
0.1199999972 0.01999999956 0
0.1066666692 0.01999999956 0
0.0933333336 0.01999999956 0
0.0799999984 0.01999999956 0
0.06666667 0.01999999956 0
0.0533333348 0.01999999956 0
0.03999999912 0.01999999956 0
0.02666666732 0.01999999956 0
0.01333333364 0.01999999956 0
0.0 0.01999999956 0
0.400000004 0.00666666684 0
0.3866666556 0.00666666684 0
0.3733333348 0.00666666684 0
0.3600000144 0.00666666684 0
0.346666664 0.00666666684 0
0.3333333432 0.00666666684 0
0.3199999928 0.00666666684 0
0.3066666724 0.00666666684 0
0.293333322 0.00666666684 0
0.2800000012 0.00666666684 0
0.2666666804 0.00666666684 0
0.25333333 0.00666666684 0
0.2399999948 0.00666666684 0
0.226666674 0.00666666684 0
0.2133333384 0.00666666684 0
0.2000000028 0.00666666684 0
0.1866666676 0.00666666684 0
0.173333332 0.00666666684 0
0.1599999964 0.00666666684 0
0.1466666608 0.00666666684 0
0.1333333404 0.00666666684 0
0.1199999972 0.00666666684 0
0.1066666692 0.00666666684 0
0.0933333336 0.00666666684 0
0.0799999984 0.00666666684 0
0.06666667 0.00666666684 0
0.0533333348 0.00666666684 0
0.03999999912 0.00666666684 0
0.02666666732 0.00666666684 0
0.01333333364 0.00666666684 0
0.0 0.00666666684 0
0.400000004 -0.00666666684 0
0.3866666556 -0.00666666684 0
0.3733333348 -0.00666666684 0
0.3600000144 -0.00666666684 0
0.346666664 -0.00666666684 0
0.3333333432 -0.00666666684 0
0.3199999928 -0.00666666684 0
0.3066666724 -0.00666666684 0
0.293333322 -0.00666666684 0
0.2800000012 -0.00666666684 0
0.2666666804 -0.00666666684 0
0.25333333 -0.00666666684 0
0.2399999948 -0.00666666684 0
0.226666674 -0.00666666684 0
0.2133333384 -0.00666666684 0
0.2000000028 -0.00666666684 0
0.1866666676 -0.00666666684 0
0.173333332 -0.00666666684 0
0.1599999964 -0.00666666684 0
0.1466666608 -0.00666666684 0
0.1333333404 -0.00666666684 0
0.1199999972 -0.00666666684 0
0.1066666692 -0.00666666684 0
0.0933333336 -0.00666666684 0
0.0799999984 -0.00666666684 0
0.06666667 -0.00666666684 0
0.0533333348 -0.00666666684 0
0.03999999912 -0.00666666684 0
0.02666666732 -0.00666666684 0
0.01333333364 -0.00666666684 0
0.0 -0.00666666684 0
0.400000004 -0.01999999956 0
0.3866666556 -0.01999999956 0
0.3733333348 -0.01999999956 0
0.3600000144 -0.01999999956 0
0.346666664 -0.01999999956 0
0.3333333432 -0.01999999956 0
0.3199999928 -0.01999999956 0
0.3066666724 -0.01999999956 0
0.293333322 -0.01999999956 0
0.2800000012 -0.01999999956 0
0.2666666804 -0.01999999956 0
0.25333333 -0.01999999956 0
0.2399999948 -0.01999999956 0
0.226666674 -0.01999999956 0
0.2133333384 -0.01999999956 0
0.2000000028 -0.01999999956 0
0.1866666676 -0.01999999956 0
0.173333332 -0.01999999956 0
0.1599999964 -0.01999999956 0
0.1466666608 -0.01999999956 0
0.1333333404 -0.01999999956 0
0.1199999972 -0.01999999956 0
0.1066666692 -0.01999999956 0
0.0933333336 -0.01999999956 0
0.0799999984 -0.01999999956 0
0.06666667 -0.01999999956 0
0.0533333348 -0.01999999956 0
0.03999999912 -0.01999999956 0
0.02666666732 -0.01999999956 0
0.01333333364 -0.01999999956 0
0.0 -0.01999999956 0
0.400000004 -0.03333333508 0
0.3866666556 -0.03333333508 0
0.3733333348 -0.03333333508 0
0.3600000144 -0.03333333508 0
0.346666664 -0.03333333508 0
0.3333333432 -0.03333333508 0
0.3199999928 -0.03333333508 0
0.3066666724 -0.03333333508 0
0.293333322 -0.03333333508 0
0.2800000012 -0.03333333508 0
0.2666666804 -0.03333333508 0
0.25333333 -0.03333333508 0
0.2399999948 -0.03333333508 0
0.226666674 -0.03333333508 0
0.2133333384 -0.03333333508 0
0.2000000028 -0.03333333508 0
0.1866666676 -0.03333333508 0
0.173333332 -0.03333333508 0
0.1599999964 -0.03333333508 0
0.1466666608 -0.03333333508 0
0.1333333404 -0.03333333508 0
0.1199999972 -0.03333333508 0
0.1066666692 -0.03333333508 0
0.0933333336 -0.03333333508 0
0.0799999984 -0.03333333508 0
0.06666667 -0.03333333508 0
0.0533333348 -0.03333333508 0
0.03999999912 -0.03333333508 0
0.02666666732 -0.03333333508 0
0.01333333364 -0.03333333508 0
0.0 -0.03333333508 0
0.400000004 -0.0466666668 0
0.3866666556 -0.0466666668 0
0.3733333348 -0.0466666668 0
0.3600000144 -0.0466666668 0
0.346666664 -0.0466666668 0
0.3333333432 -0.0466666668 0
0.3199999928 -0.0466666668 0
0.3066666724 -0.0466666668 0
0.293333322 -0.0466666668 0
0.2800000012 -0.0466666668 0
0.2666666804 -0.0466666668 0
0.25333333 -0.0466666668 0
0.2399999948 -0.0466666668 0
0.226666674 -0.0466666668 0
0.2133333384 -0.0466666668 0
0.2000000028 -0.0466666668 0
0.1866666676 -0.0466666668 0
0.173333332 -0.0466666668 0
0.1599999964 -0.0466666668 0
0.1466666608 -0.0466666668 0
0.1333333404 -0.0466666668 0
0.1199999972 -0.0466666668 0
0.1066666692 -0.0466666668 0
0.0933333336 -0.0466666668 0
0.0799999984 -0.0466666668 0
0.06666667 -0.0466666668 0
0.0533333348 -0.0466666668 0
0.03999999912 -0.0466666668 0
0.02666666732 -0.0466666668 0
0.01333333364 -0.0466666668 0
0.0 -0.0466666668 0
0.400000004 -0.0599999988 0
0.3866666556 -0.0599999988 0
0.3733333348 -0.0599999988 0
0.3600000144 -0.0599999988 0
0.346666664 -0.0599999988 0
0.3333333432 -0.0599999988 0
0.3199999928 -0.0599999988 0
0.3066666724 -0.0599999988 0
0.293333322 -0.0599999988 0
0.2800000012 -0.0599999988 0
0.2666666804 -0.0599999988 0
0.25333333 -0.0599999988 0
0.2399999948 -0.0599999988 0
0.226666674 -0.0599999988 0
0.2133333384 -0.0599999988 0
0.2000000028 -0.0599999988 0
0.1866666676 -0.0599999988 0
0.173333332 -0.0599999988 0
0.1599999964 -0.0599999988 0
0.1466666608 -0.0599999988 0
0.1333333404 -0.0599999988 0
0.1199999972 -0.0599999988 0
0.1066666692 -0.0599999988 0
0.0933333336 -0.0599999988 0
0.0799999984 -0.0599999988 0
0.06666667 -0.0599999988 0
0.0533333348 -0.0599999988 0
0.03999999912 -0.0599999988 0
0.02666666732 -0.0599999988 0
0.01333333364 -0.0599999988 0
0.0 -0.0599999988 0
0.400000004 -0.0733333304 0
0.3866666556 -0.0733333304 0
0.3733333348 -0.0733333304 0
0.3600000144 -0.0733333304 0
0.346666664 -0.0733333304 0
0.3333333432 -0.0733333304 0
0.3199999928 -0.0733333304 0
0.3066666724 -0.0733333304 0
0.293333322 -0.0733333304 0
0.2800000012 -0.0733333304 0
0.2666666804 -0.0733333304 0
0.25333333 -0.0733333304 0
0.2399999948 -0.0733333304 0
0.226666674 -0.0733333304 0
0.2133333384 -0.0733333304 0
0.2000000028 -0.0733333304 0
0.1866666676 -0.0733333304 0
0.173333332 -0.0733333304 0
0.1599999964 -0.0733333304 0
0.1466666608 -0.0733333304 0
0.1333333404 -0.0733333304 0
0.1199999972 -0.0733333304 0
0.1066666692 -0.0733333304 0
0.0933333336 -0.0733333304 0
0.0799999984 -0.0733333304 0
0.06666667 -0.0733333304 0
0.0533333348 -0.0733333304 0
0.03999999912 -0.0733333304 0
0.02666666732 -0.0733333304 0
0.01333333364 -0.0733333304 0
0.0 -0.0733333304 0
0.400000004 -0.086666666 0
0.3866666556 -0.086666666 0
0.3733333348 -0.086666666 0
0.3600000144 -0.086666666 0
0.346666664 -0.086666666 0
0.3333333432 -0.086666666 0
0.3199999928 -0.086666666 0
0.3066666724 -0.086666666 0
0.293333322 -0.086666666 0
0.2800000012 -0.086666666 0
0.2666666804 -0.086666666 0
0.25333333 -0.086666666 0
0.2399999948 -0.086666666 0
0.226666674 -0.086666666 0
0.2133333384 -0.086666666 0
0.2000000028 -0.086666666 0
0.1866666676 -0.086666666 0
0.173333332 -0.086666666 0
0.1599999964 -0.086666666 0
0.1466666608 -0.086666666 0
0.1333333404 -0.086666666 0
0.1199999972 -0.086666666 0
0.1066666692 -0.086666666 0
0.0933333336 -0.086666666 0
0.0799999984 -0.086666666 0
0.06666667 -0.086666666 0
0.0533333348 -0.086666666 0
0.03999999912 -0.086666666 0
0.02666666732 -0.086666666 0
0.01333333364 -0.086666666 0
0.0 -0.086666666 0
0.400000004 -0.1000000016 0
0.3866666556 -0.1000000016 0
0.3733333348 -0.1000000016 0
0.3600000144 -0.1000000016 0
0.346666664 -0.1000000016 0
0.3333333432 -0.1000000016 0
0.3199999928 -0.1000000016 0
0.3066666724 -0.1000000016 0
0.293333322 -0.1000000016 0
0.2800000012 -0.1000000016 0
0.2666666804 -0.1000000016 0
0.25333333 -0.1000000016 0
0.2399999948 -0.1000000016 0
0.226666674 -0.1000000016 0
0.2133333384 -0.1000000016 0
0.2000000028 -0.1000000016 0
0.1866666676 -0.1000000016 0
0.173333332 -0.1000000016 0
0.1599999964 -0.1000000016 0
0.1466666608 -0.1000000016 0
0.1333333404 -0.1000000016 0
0.1199999972 -0.1000000016 0
0.1066666692 -0.1000000016 0
0.0933333336 -0.1000000016 0
0.0799999984 -0.1000000016 0
0.06666667 -0.1000000016 0
0.0533333348 -0.1000000016 0
0.03999999912 -0.1000000016 0
0.02666666732 -0.1000000016 0
0.01333333364 -0.1000000016 0
0.0 -0.1000000016 0
0.400000004 -0.1133333372 0
0.3866666556 -0.1133333372 0
0.3733333348 -0.1133333372 0
0.3600000144 -0.1133333372 0
0.346666664 -0.1133333372 0
0.3333333432 -0.1133333372 0
0.3199999928 -0.1133333372 0
0.3066666724 -0.1133333372 0
0.293333322 -0.1133333372 0
0.2800000012 -0.1133333372 0
0.2666666804 -0.1133333372 0
0.25333333 -0.1133333372 0
0.2399999948 -0.1133333372 0
0.226666674 -0.1133333372 0
0.2133333384 -0.1133333372 0
0.2000000028 -0.1133333372 0
0.1866666676 -0.1133333372 0
0.173333332 -0.1133333372 0
0.1599999964 -0.1133333372 0
0.1466666608 -0.1133333372 0
0.1333333404 -0.1133333372 0
0.1199999972 -0.1133333372 0
0.1066666692 -0.1133333372 0
0.0933333336 -0.1133333372 0
0.0799999984 -0.1133333372 0
0.06666667 -0.1133333372 0
0.0533333348 -0.1133333372 0
0.03999999912 -0.1133333372 0
0.02666666732 -0.1133333372 0
0.01333333364 -0.1133333372 0
0.0 -0.1133333372 0
0.400000004 -0.1266666652 0
0.3866666556 -0.1266666652 0
0.3733333348 -0.1266666652 0
[...]
POINT_DATA 961
SCALARS Temp float 1
LOOKUP_TABLE default
0.7646465571947552
0.7951930579975374
0.8171276499945264
0.8330891333238979
0.8447963631006762
0.8534280546982839
0.8598234580786894
0.864586724939605
0.868157680369019
0.8708586905629424
0.8729288674650304
0.8745477842483057
0.8758527783122938
0.8769524195135533
0.8779365585250953
0.8788842976121072
0.8798712910317434
0.880976455551616
0.8822890205757781
0.8839165939215796
0.8859949847713221
0.8887011373313338
0.8922696149704044
0.8970160253549768
0.9033684660949061
0.9119121545829757
0.923453014945942
0.9391107109295133
0.9604603878888831
0.9897878740754347
1.0307207577504818
0.8069837138194371
0.836935942971976
0.8586351204098359
0.8745092758909538
0.8861763406059135
0.8947915250013647
0.9011819450997351
0.9059459753479671
0.9095204205203778
0.9122260738594268
0.914301238394506
0.9159251054122134
0.9172348755908628
0.9183391134285701
0.919327737236349
0.9202799598530557
0.9212715616869417
0.9223815848238711
0.9236993637580379
0.9253325627140869
0.9274169535553957
0.9301292632866323
0.933703528008787
0.9384542557614517
0.9448074193960464
0.9533441934814928
0.9648627391694898
0.980466682731575
1.0016977670028655
1.0307265114360304
1.070695677794343
2.7890952746683926
2.7935494492619393
2.8059635414326833
2.8174219685378192
2.826906781837551
2.834463084859005
2.8403894629496413
2.845008684817408
2.8486072245823224
2.8514229595900007
2.8536484369763992
2.855438556837113
2.856918910465806
2.85819358389052
2.8593521040240306
2.860475650212358
2.861642831979564
2.8629353552885632
2.8644438832966426
2.866274455406897
2.868555822357483
2.8714479392725156
2.8751517596315392
2.8799199416048245
2.8860667789040595
2.8939722192544384
2.9040652043952813
2.9167423622374384
2.9320618414141837
2.9486514322507333
2.9546072430826165
4.746391540928737
4.748823754273731
4.754795298808707
4.76226100138048
4.769346504488351
4.775497503190339
4.780623101696178
4.784808164877519
4.788193778501638
4.790928840293364
4.7931515842907615
4.79498404058202
4.796532243997698
4.797888919024911
4.799137127711458
4.800354273527581
4.80161624880026
4.803001662660682
4.8045961826832455
4.806497000437791
4.808817323687917
4.811690578900246
4.815273393089409
4.819745466022425
4.825301825746541
4.832127757087339
4.840333934057659
4.849796241774357
4.859770527068888
4.867750170491045
4.8710000379341025
6.697821255885764
6.699117141266914
6.702620256943992
6.707366101461933
6.712424666274123
6.717183991327403
6.721391728427001
6.72498777245772
6.72800577064492
6.730519738115893
6.732617116985918
6.7343859492207745
6.7359096283416235
6.737265679295989
6.7385266224078615
6.739761929695025
6.741040544797923
6.742433638562126
6.744017388661536
6.745875535082639
6.748101310123734
6.750798031451824
6.754076943960405
6.758049843786555
6.762811620101022
6.768403910278279
6.774743609906741
6.781490881800686
6.787825723817062
6.792503446791436
6.794234125420968
8.645671948118734
8.646462329743713
8.64864993196992
8.651783839997067
8.65534205911843
8.658907984470364
8.662226954779696
8.665183746291687
8.66775133564784
8.669952214392936
8.671833875434022
8.673454561905388
8.674875696382156
8.676158428064173
8.677362604283893
8.67854715283879
8.67977123854083
8.681095732690787
8.682584640978758
8.68430609468656
8.686332356981893
8.688738011210873
8.691594912365707
8.694961768518363
8.698864825631203
8.703264823326982
8.708005183201251
8.71274333919641
8.716920721437953
8.719838345834432
8.720892740426683
10.591077035433802
10.591581352895057
10.59300359871216
10.595107443592468
10.597597389969085
10.600203422592902
10.602729548633855
10.605060674655777
10.607146837803137
10.608981961404517
10.610586582860828
10.611995887026522
10.613252273006326
10.614401213382711
10.615489287015784
10.616563584310233
10.617671902453106
10.618863257188067
10.620188316784741
10.621699326534438
10.623448972487996
10.625487435675986
10.62785652313962
10.630579500939369
10.633644887163275
10.636983146599704
10.640438223576519
10.643746314729174
10.646545097598267
10.648438561568216
10.649110197821795
12.534532254071337
12.53485793186946
12.535786609891895
12.537189251865758
12.538895380642888
12.540736450569435
12.542576360787033
12.544323380505947
12.545927658962365
12.547371917563643
12.548661259052196
12.549814780244706
12.550859644577107
12.551827343032791
12.552751580673963
12.5536672717982
12.554610202124843
12.555616957471404
12.556724766347227
12.557970874486317
12.559390993898216
12.56101626818661
12.562868036091732
12.564949743950812
12.567235579267916
12.569656688503862
12.572088683638167
12.574348200989267
12.576208855069545
12.577441978810779
12.577874616862974
14.47628102420131
14.476482900401777
14.477062840497755
14.477951058636332
14.479052168478734
14.480266980243696
14.481509953574175
14.482718366416584
14.48385378593313
14.484898647080449
14.485851068366664
14.486719828051383
14.487520403463893
14.488272231686306
14.488996992115819
14.48971763775734
14.490457895701214
14.491241954218923
14.492094077788806
14.493037871525019
14.494094878870797
14.495282164918752
14.49660850378035
14.498068982259278
14.499638183849196
14.501263152891493
14.502858787967144
14.504309730691682
14.505482627004854
14.506249421344098
14.5065165012675
16.416439697605156
16.416546325160102
16.41685442856597
16.417331660920162
16.417932841600678
16.41860945708137
16.419317837710906
16.42002411678429
16.4207058127
16.421350922166248
16.421955823701285
16.422522941489248
16.423058733303527
16.42357219502323
16.42407384634048
16.424575091691683
16.425087825258622
16.42562413134403
16.42619594151038
16.42681449941599
16.427489471477802
16.42822754245899
16.429030344347765
16.42989172181721
16.4307945608918
16.431707932396137
16.43258586586534
16.433369422935314
16.43399332973786
16.43439688713205
16.434536674564985
18.355062326584708
18.35508661707301
18.355158117042663
18.355272959875162
18.355425447167814
18.355608927431835
18.355816664834162
18.356042512324585
18.356281324829833
18.35652911186616
18.356783010780717
18.357041144926225
18.357302434854716
18.35756640639741
18.357833008727855
18.35810244868811
18.358375040880063
18.358651060315026
18.35893058788225
18.359213337175234
18.359498453357816
18.35978428339699
18.360068120312494
18.36034595915528
18.360612309000615
18.360860153463005
18.361081160400495
18.36126622862199
18.361406392565257
18.361493980483615
18.361523791108112
18.463216595992442
18.463237060356253
18.463297515998935
18.46339529525331
18.463526393241416
18.46368600549007
18.463869089417848
18.464070835341214
18.46428699814646
18.464514066056655
18.46474930437212
18.46499070205782
18.465236864432672
18.46548688499978
18.465740208471217
18.465996494468214
18.466255486603366
18.466516879968403
18.466780183480044
18.467044572181464
18.467308726974355
18.46757066726381
18.467827583591284
18.468075704881905
18.468310230962153
18.468525389758785
18.46871466957434
18.46887125865428
18.468988679855883
18.4690615390369
18.469086245789732
18.571247355076906
18.57126498292758
18.57131720343397
18.571402115419456
18.571516821252693
18.571657765792366
18.571821106098884
18.572003040052593
18.572200060948493
18.57240911039155
18.572627647570634
18.57285364298641
18.573085522922653
18.573322087790757
18.573562412967306
18.573805741683806
18.57405137705126
18.57429857015365
18.574546404798554
18.57479367834732
18.57503878005577
18.575279574899923
18.575513300145673
18.575736503111106
18.575945038265576
18.576134160370362
18.576298736263443
18.576433582897412
18.57653391190345
18.57659582245594
18.576616756546926
18.679159974798928
18.679175460037012
18.679221431553465
18.67929649213521
18.679398485016854
18.679524713326625
18.679672188120595
18.679837858548762
18.68001880345957
18.680212358949174
18.68041619137665
18.680628313915747
18.680847062331
18.681071045676
18.681299076972124
18.68153009219293
18.681763065290006
18.681996918335305
18.682230429760278
18.682462142582168
18.68269027594371
18.682912648298117
18.683126617918695
18.68332906299617
18.683516410174157
18.683684733956056
18.683829935093055
18.683947995612186
18.68403529199756
18.68408892611784
18.68410702091247
18.786958425742032
18.786972271392145
18.78701344362475
18.787080884237152
18.787172941771725
18.787287517012114
18.787422232474455
18.78757459482366
18.787742138075753
18.787922525801214
18.788113618477453
18.788313499417722
18.78852046868665
18.788733015638567
18.788949772256057
18.78916945404981
18.78939079599795
18.78961248355321
18.78983308281758
18.79005097291094
18.790264284447634
18.790470851762613
18.790668182563433
18.790853462187634
18.791023595109625
18.791175297605847
18.791305242542787
18.791410250625482
18.791487513203542
18.791534818806266
18.791550750136572
18.89464563811048
18.894658220642288
18.8946956849142
18.894757204944124
18.894841479234596
18.89494682936111
18.89507131792476
18.895212864281795
18.895369351662907
18.895538707464983
18.895718961785892
18.89590827577019
18.896104945601074
18.896307389515073
18.896514117942402
18.896723692078993
18.89693467771351
18.89714559457402
18.897354865592792
18.89756076940578
18.89776139985845
18.89795463908175
18.898138145981548
18.89830937351309
18.898465613514617
18.898604078089335
18.89872201523725
18.898816852576065
18.898886357896675
18.89892879730607
18.898943069675912
18.99847680259969
18.998488375464444
18.99852286743344
18.998579615042694
18.998657564012856
18.998755337396837
18.9988713191418
18.999003737454665
18.999150745373857
18.999310483311987
18.999481128490203
18.999660922367042
18.99984817992131
19.00004128613002
19.000238678360976
19.000438818783188
19.000640162842377
19.000841123923937
19.001040038426606
19.00123513437806
19.001424506875047
19.00160610578858
19.001777736117425
19.001937081627833
19.002081748288443
19.002209333714422
19.00231751903982
19.002404177642163
19.002467492506078
19.002506068773034
19.002519027611935
19.094696126193117
19.09470684651093
19.094738821379668
19.09479150403149
19.094864019226417
19.094955211222903
19.09506370400257
19.095187962008822
19.095326351260653
19.095477187983654
19.0956387798302
19.095809450995556
19.095987554021956
19.09617147237415
19.096359611644935
19.09655038255426
19.096742181022137
19.0969333651377
19.097122232834312
19.09730700299046
19.097485802634754
19.097656664677636
19.097817535485362
19.097966300994337
19.098100826658246
19.098219015893022
19.098318883129373
19.09839863679928
19.098456766390143
19.098492124032614
19.09850399143328
19.183309735760563
19.183319720306848
19.18334951743575
19.183398665832662
19.18346642237407
19.183551796490647
19.183653594335805
19.183770463591856
19.183900940348494
19.18404348705375
19.184196526804712
19.184358465771155
19.184527705979523
19.184702651762642
19.184881707235014
19.18506326724305
19.1852457063803
19.185427365551895
19.18560653940178
19.185781466839806
19.185950326752767
19.186111242465564
19.18626229353155
19.186401542174952
19.186527069107278
19.186637022522085
19.186729676511835
19.186803495132654
19.18685719799354
19.18688982050151
19.18690076257393
19.26435021780221
19.264359556213503
19.264387436942442
19.26443346247649
19.26449698903523
19.26457715161714
19.264672896982624
19.264783017161818
19.264906185910654
19.265040988561672
19.26518595068088
19.265339557900056
19.26550026885511
19.265666524047912
19.265836747729335
19.26600934472044
19.266182696166386
19.26635515339632
19.266525032710213
19.266690612860607
19.266850136788847
19.2670018204902
19.2671438671061
19.267274492579304
19.267391957406602
19.267494607810207
19.267580922879876
19.26764956469358
19.267699428561
19.26772968835092
19.267739832669633
19.33787364913214
19.337882413247847
19.33790858777923
19.337951823759425
19.338011553498838
19.338087009169076
19.33817724790542
19.33828117724874
19.338397583952066
19.338525157730913
19.33866251543609
19.338808218591385
19.338960786069674
19.33911870440564
19.339280432734327
19.339444403875188
19.339609025057534
19.339772677203218
19.339933715141157
19.340090470108105
19.340241255658576
19.340384379314735
19.34051815775926
19.340640941183157
19.34075114135451
19.340847266446485
19.340927959530156
19.340992038376953
19.34103853462823
19.341066728560484
19.341076176509254
19.40395575903966
19.403964009558187
19.403988656182413
19.404029387537594
19.40408569522355
19.404156887864495
19.404242110603796
19.40434036475157
19.404450530958623
19.40457138838978
19.404701635371087
19.404839904983675
19.404984777287858
19.405134790457176
19.405288447795854
19.40544422186387
19.405600558793967
19.40575588151833
19.40590859389747
19.406057086760256
19.40619974663009
19.40633496904647
19.406461174120647
19.406576829391987
19.4066804746991
19.406770751925517
19.406846436864136
19.406906471347565
19.406949994353994
19.406976369206426
19.406985204797824
19.462687778393736
19.46269556960194
19.462718848394342
19.462757332944342
19.462810561724442
19.462877904344616
19.462958577022025
19.463051658043895
19.4631561067797
19.46327077942707
19.463394446907
19.463525808852346
19.46366350531493
19.463806128311067
19.463952230218734
19.464100330029588
19.464248920203346
19.464396472700333
19.46454144586804
19.464682292913736
19.464817472468386
19.464945462827945
19.465064777434335
19.465173986241016
19.46527173788015
19.465356785365387
19.465428012875034
19.46548446214969
19.465525357679603
19.465550128427672
19.46555842461381
19.514170647205255
19.51417803029871
19.514200092749558
19.514236576205302
19.514287056571376
19.51435095255887
19.514427538245414
19.514515955504027
19.51461522993137
19.51472428403155
19.514841952973427
19.514966997275014
19.51509811399537
19.515233948430662
19.515373103395873
19.515514146930613
19.51565562090268
19.51579604898954
19.51593394545872
19.51606782526239
19.51619621574801
19.51631767132394
19.516430788624014
19.516534226481614
19.516626725851317
19.516707132313044
19.516774418959173
19.51682770849317
19.51686629404485
19.51688965689784
19.516897480062003
19.558510641784476
19.55851766711587
19.558538662651333
19.558573388767975
19.558621451377192
19.558682308831155
19.558755282373724
19.558839566365858
19.55893424192755
19.559038288211177
19.559150596506857
19.55926998188138
19.559395193892705
19.559524928277146
19.559657836771734
19.559792535786794
19.5599276161816
19.560061652564226
19.56019321333487
19.560320871822668
19.5604432186674
19.560558876597113
19.56066651516244
19.560764869469573
19.56085275826605
19.56092910393075
19.560992952379316
19.56104349193543
19.561080070905962
19.561102212379012
19.561109625459125
19.595813045666194
19.595819764187656
19.595839844343534
19.5958730613871
19.595919045156638
19.5959772858069
19.596047142730846
19.59612785318938
19.596218544264367
19.59631824271685
19.59642588782681
19.596540342206954
19.596660402096347
19.596784808950716
19.596912259573315
19.597041415409343
19.5971709130813
19.597299374553906
19.597425417990973
19.59754766953172
19.59766477602767
19.597775419750814
19.597878332668245
19.59797231410995
19.598056247380118
19.59812911779237
19.598190030308153
19.598238225994997
19.59827309720533
19.59829420022769
19.598301264820716
19.62617763250756
19.626184096580534
19.626203417327034
19.626235381613185
19.626279638016385
19.626335701722628
19.62640296235067
19.626480691438218
19.626568053163
19.626664113166587
19.62676785044172
19.62687816750872
19.626993900356236
19.62711382989632
19.62723669225428
19.62736118844699
19.6274859953918
19.627609776618694
19.62773119363028
19.62784891804758
19.627961644504417
19.628068105197762
19.628167083729515
19.628257431896596
19.628338085148606
19.62840807913197
19.62846656563172
19.628512827248827
19.628546290826385
19.628566538543097
19.628573316219462
19.649693425852107
19.649699689577947
19.649718412239583
19.649749389436778
19.649792283876124
19.64984662969037
19.649911839494653
19.64998721107461
19.6500719372334
19.65016511388194
19.650265751232748
19.650372783503137
19.650485078576295
19.65060144931963
19.650720663943172
19.6508414559036
19.65096253519407
19.651082599387593
19.651200345292725
19.65131448129684
19.651423740305994
19.65152689411437
19.651622766878067
19.651710251220372
19.6517883228235
19.651856055875882
19.65191263778476
19.65195738257764
19.6519897430822
19.652009320918882
19.65201587394355
19.666434330332446
19.666440449517864
19.666458740620456
19.666489005337535
19.66653091625863
19.666584020807022
19.666647747789334
19.666721413558868
19.666804231280032
19.666895318530052
19.66699370802093
19.667098356976243
19.66720815659003
19.66732194323108
19.667438508822514
19.66755661086977
19.667674983906135
19.667792350724405
19.66790743419494
19.668018969704026
19.668125718087296
19.668226479840662
19.668320108315978
19.66840552533634
19.668481735185644
19.668547839304107
19.668603050167988
19.66864670383406
19.668678271286975
19.668697367699977
19.668703759305405
19.676455932966107
19.676461964817094
19.676479995135715
19.676509829226724
19.676551145533818
19.676603499367445
19.676666329166515
19.67673896236351
19.67682062431557
19.67691044562614
19.677007472593107
19.677110676393916
19.67721896242234
19.677331181417983
19.677446139847916
19.67756260999441
19.67767934147679
19.677795072577144
19.677908542136908
19.678018502034675
19.6781237301006
19.678223044221323
19.67831531536265
19.678399482890885
19.678474568207406
19.678539689005092
19.678594072665614
19.678637068310312
19.678668157669662
19.678686963925344
19.678693258254338
19.679792575440693
19.679798578075097
19.67981652114758
19.67984621115737
19.67988732848769
19.679939431064547
19.680001960524834
19.680074247985008
19.680155522863345
19.68024492011056
19.680341490568235
19.680444210090414
19.680551988839788
19.6806636823912
19.680778102112146
19.68089402526815
19.681010206567084
19.681125389513323
19.68123831832733
19.681347750433762
19.68145246936707
19.68155129883924
19.681643115704063
19.681726865180217
19.681801574368617
19.681866366364595
19.681920473496984
19.681963249217834
19.68199417881607
19.68201288812335
19.682019149951927
