# vtk DataFile Version 2.0
Unstructured Grid Example
ASCII
DATASET UNSTRUCTURED_GRID

POINTS 961 float
0.400000004 0.01999999956 0
0.3866666556 0.01999999956 0
0.3733333348 0.01999999956 0
0.3600000144 0.01999999956 0
0.346666664 0.01999999956 0
0.3333333432 0.01999999956 0
0.3199999928 0.01999999956 0
0.3066666724 0.01999999956 0
0.293333322 0.01999999956 0
0.2800000012 0.01999999956 0
0.2666666804 0.01999999956 0
0.25333333 0.01999999956 0
0.2399999948 0.01999999956 0
0.226666674 0.01999999956 0
0.2133333384 0.01999999956 0
0.2000000028 0.01999999956 0
0.1866666676 0.01999999956 0
0.173333332 0.01999999956 0
0.1599999964 0.01999999956 0
0.1466666608 0.01999999956 0
0.1333333404 0.01999999956 0
0.1199999972 0.01999999956 0
0.1066666692 0.01999999956 0
0.0933333336 0.01999999956 0
0.0799999984 0.01999999956 0
0.06666667 0.01999999956 0
0.0533333348 0.01999999956 0
0.03999999912 0.01999999956 0
0.02666666732 0.01999999956 0
0.01333333364 0.01999999956 0
0.0 0.01999999956 0
0.400000004 0.00666666684 0
0.3866666556 0.00666666684 0
0.3733333348 0.00666666684 0
0.3600000144 0.00666666684 0
0.346666664 0.00666666684 0
0.3333333432 0.00666666684 0
0.3199999928 0.00666666684 0
0.3066666724 0.00666666684 0
0.293333322 0.00666666684 0
0.2800000012 0.00666666684 0
0.2666666804 0.00666666684 0
0.25333333 0.00666666684 0
0.2399999948 0.00666666684 0
0.226666674 0.00666666684 0
0.2133333384 0.00666666684 0
0.2000000028 0.00666666684 0
0.1866666676 0.00666666684 0
0.173333332 0.00666666684 0
0.1599999964 0.00666666684 0
0.1466666608 0.00666666684 0
0.1333333404 0.00666666684 0
0.1199999972 0.00666666684 0
0.1066666692 0.00666666684 0
0.0933333336 0.00666666684 0
0.0799999984 0.00666666684 0
0.06666667 0.00666666684 0
0.0533333348 0.00666666684 0
0.03999999912 0.00666666684 0
0.02666666732 0.00666666684 0
0.01333333364 0.00666666684 0
0.0 0.00666666684 0
0.400000004 -0.00666666684 0
0.3866666556 -0.00666666684 0
0.3733333348 -0.00666666684 0
0.3600000144 -0.00666666684 0
0.346666664 -0.00666666684 0
0.3333333432 -0.00666666684 0
0.3199999928 -0.00666666684 0
0.3066666724 -0.00666666684 0
0.293333322 -0.00666666684 0
0.2800000012 -0.00666666684 0
0.2666666804 -0.00666666684 0
0.25333333 -0.00666666684 0
0.2399999948 -0.00666666684 0
0.226666674 -0.00666666684 0
0.2133333384 -0.00666666684 0
0.2000000028 -0.00666666684 0
0.1866666676 -0.00666666684 0
0.173333332 -0.00666666684 0
0.1599999964 -0.00666666684 0
0.1466666608 -0.00666666684 0
0.1333333404 -0.00666666684 0
0.1199999972 -0.00666666684 0
0.1066666692 -0.00666666684 0
0.0933333336 -0.00666666684 0
0.0799999984 -0.00666666684 0
0.06666667 -0.00666666684 0
0.0533333348 -0.00666666684 0
0.03999999912 -0.00666666684 0
0.02666666732 -0.00666666684 0
0.01333333364 -0.00666666684 0
0.0 -0.00666666684 0
0.400000004 -0.01999999956 0
0.3866666556 -0.01999999956 0
0.3733333348 -0.01999999956 0
0.3600000144 -0.01999999956 0
0.346666664 -0.01999999956 0
0.3333333432 -0.01999999956 0
0.3199999928 -0.01999999956 0
0.3066666724 -0.01999999956 0
0.293333322 -0.01999999956 0
0.2800000012 -0.01999999956 0
0.2666666804 -0.01999999956 0
0.25333333 -0.01999999956 0
0.2399999948 -0.01999999956 0
0.226666674 -0.01999999956 0
0.2133333384 -0.01999999956 0
0.2000000028 -0.01999999956 0
0.1866666676 -0.01999999956 0
0.173333332 -0.01999999956 0
0.1599999964 -0.01999999956 0
0.1466666608 -0.01999999956 0
0.1333333404 -0.01999999956 0
0.1199999972 -0.01999999956 0
0.1066666692 -0.01999999956 0
0.0933333336 -0.01999999956 0
0.0799999984 -0.01999999956 0
0.06666667 -0.01999999956 0
0.0533333348 -0.01999999956 0
0.03999999912 -0.01999999956 0
0.02666666732 -0.01999999956 0
0.01333333364 -0.01999999956 0
0.0 -0.01999999956 0
0.400000004 -0.03333333508 0
0.3866666556 -0.03333333508 0
0.3733333348 -0.03333333508 0
0.3600000144 -0.03333333508 0
0.346666664 -0.03333333508 0
0.3333333432 -0.03333333508 0
0.3199999928 -0.03333333508 0
0.3066666724 -0.03333333508 0
0.293333322 -0.03333333508 0
0.2800000012 -0.03333333508 0
0.2666666804 -0.03333333508 0
0.25333333 -0.03333333508 0
0.2399999948 -0.03333333508 0
0.226666674 -0.03333333508 0
0.2133333384 -0.03333333508 0
0.2000000028 -0.03333333508 0
0.1866666676 -0.03333333508 0
0.173333332 -0.03333333508 0
0.1599999964 -0.03333333508 0
0.1466666608 -0.03333333508 0
0.1333333404 -0.03333333508 0
0.1199999972 -0.03333333508 0
0.1066666692 -0.03333333508 0
0.0933333336 -0.03333333508 0
0.0799999984 -0.03333333508 0
0.06666667 -0.03333333508 0
0.0533333348 -0.03333333508 0
0.03999999912 -0.03333333508 0
0.02666666732 -0.03333333508 0
0.01333333364 -0.03333333508 0
0.0 -0.03333333508 0
0.400000004 -0.0466666668 0
0.3866666556 -0.0466666668 0
0.3733333348 -0.0466666668 0
0.3600000144 -0.0466666668 0
0.346666664 -0.0466666668 0
0.3333333432 -0.0466666668 0
0.3199999928 -0.0466666668 0
0.3066666724 -0.0466666668 0
0.293333322 -0.0466666668 0
0.2800000012 -0.0466666668 0
0.2666666804 -0.0466666668 0
0.25333333 -0.0466666668 0
0.2399999948 -0.0466666668 0
0.226666674 -0.0466666668 0
0.2133333384 -0.0466666668 0
0.2000000028 -0.0466666668 0
0.1866666676 -0.0466666668 0
0.173333332 -0.0466666668 0
0.1599999964 -0.0466666668 0
0.1466666608 -0.0466666668 0
0.1333333404 -0.0466666668 0
0.1199999972 -0.0466666668 0
0.1066666692 -0.0466666668 0
0.0933333336 -0.0466666668 0
0.0799999984 -0.0466666668 0
0.06666667 -0.0466666668 0
0.0533333348 -0.0466666668 0
0.03999999912 -0.0466666668 0
0.02666666732 -0.0466666668 0
0.01333333364 -0.0466666668 0
0.0 -0.0466666668 0
0.400000004 -0.0599999988 0
0.3866666556 -0.0599999988 0
0.3733333348 -0.0599999988 0
0.3600000144 -0.0599999988 0
0.346666664 -0.0599999988 0
0.3333333432 -0.0599999988 0
0.3199999928 -0.0599999988 0
0.3066666724 -0.0599999988 0
0.293333322 -0.0599999988 0
0.2800000012 -0.0599999988 0
0.2666666804 -0.0599999988 0
0.25333333 -0.0599999988 0
0.2399999948 -0.0599999988 0
0.226666674 -0.0599999988 0
0.2133333384 -0.0599999988 0
0.2000000028 -0.0599999988 0
0.1866666676 -0.0599999988 0
0.173333332 -0.0599999988 0
0.1599999964 -0.0599999988 0
0.1466666608 -0.0599999988 0
0.1333333404 -0.0599999988 0
0.1199999972 -0.0599999988 0
0.1066666692 -0.0599999988 0
0.0933333336 -0.0599999988 0
0.0799999984 -0.0599999988 0
0.06666667 -0.0599999988 0
0.0533333348 -0.0599999988 0
0.03999999912 -0.0599999988 0
0.02666666732 -0.0599999988 0
0.01333333364 -0.0599999988 0
0.0 -0.0599999988 0
0.400000004 -0.0733333304 0
0.3866666556 -0.0733333304 0
0.3733333348 -0.0733333304 0
0.3600000144 -0.0733333304 0
0.346666664 -0.0733333304 0
0.3333333432 -0.0733333304 0
0.3199999928 -0.0733333304 0
0.3066666724 -0.0733333304 0
0.293333322 -0.0733333304 0
0.2800000012 -0.0733333304 0
0.2666666804 -0.0733333304 0
0.25333333 -0.0733333304 0
0.2399999948 -0.0733333304 0
0.226666674 -0.0733333304 0
0.2133333384 -0.0733333304 0
0.2000000028 -0.0733333304 0
0.1866666676 -0.0733333304 0
0.173333332 -0.0733333304 0
0.1599999964 -0.0733333304 0
0.1466666608 -0.0733333304 0
0.1333333404 -0.0733333304 0
0.1199999972 -0.0733333304 0
0.1066666692 -0.0733333304 0
0.0933333336 -0.0733333304 0
0.0799999984 -0.0733333304 0
0.06666667 -0.0733333304 0
0.0533333348 -0.0733333304 0
0.03999999912 -0.0733333304 0
0.02666666732 -0.0733333304 0
0.01333333364 -0.0733333304 0
0.0 -0.0733333304 0
0.400000004 -0.086666666 0
0.3866666556 -0.086666666 0
0.3733333348 -0.086666666 0
0.3600000144 -0.086666666 0
0.346666664 -0.086666666 0
0.3333333432 -0.086666666 0
0.3199999928 -0.086666666 0
0.3066666724 -0.086666666 0
0.293333322 -0.086666666 0
0.2800000012 -0.086666666 0
0.2666666804 -0.086666666 0
0.25333333 -0.086666666 0
0.2399999948 -0.086666666 0
0.226666674 -0.086666666 0
0.2133333384 -0.086666666 0
0.2000000028 -0.086666666 0
0.1866666676 -0.086666666 0
0.173333332 -0.086666666 0
0.1599999964 -0.086666666 0
0.1466666608 -0.086666666 0
0.1333333404 -0.086666666 0
0.1199999972 -0.086666666 0
0.1066666692 -0.086666666 0
0.0933333336 -0.086666666 0
0.0799999984 -0.086666666 0
0.06666667 -0.086666666 0
0.0533333348 -0.086666666 0
0.03999999912 -0.086666666 0
0.02666666732 -0.086666666 0
0.01333333364 -0.086666666 0
0.0 -0.086666666 0
0.400000004 -0.1000000016 0
0.3866666556 -0.1000000016 0
0.3733333348 -0.1000000016 0
0.3600000144 -0.1000000016 0
0.346666664 -0.1000000016 0
0.3333333432 -0.1000000016 0
0.3199999928 -0.1000000016 0
0.3066666724 -0.1000000016 0
0.293333322 -0.1000000016 0
0.2800000012 -0.1000000016 0
0.2666666804 -0.1000000016 0
0.25333333 -0.1000000016 0
0.2399999948 -0.1000000016 0
0.226666674 -0.1000000016 0
0.2133333384 -0.1000000016 0
0.2000000028 -0.1000000016 0
0.1866666676 -0.1000000016 0
0.173333332 -0.1000000016 0
0.1599999964 -0.1000000016 0
0.1466666608 -0.1000000016 0
0.1333333404 -0.1000000016 0
0.1199999972 -0.1000000016 0
0.1066666692 -0.1000000016 0
0.0933333336 -0.1000000016 0
0.0799999984 -0.1000000016 0
0.06666667 -0.1000000016 0
0.0533333348 -0.1000000016 0
0.03999999912 -0.1000000016 0
0.02666666732 -0.1000000016 0
0.01333333364 -0.1000000016 0
0.0 -0.1000000016 0
0.400000004 -0.1133333372 0
0.3866666556 -0.1133333372 0
0.3733333348 -0.1133333372 0
0.3600000144 -0.1133333372 0
0.346666664 -0.1133333372 0
0.3333333432 -0.1133333372 0
0.3199999928 -0.1133333372 0
0.3066666724 -0.1133333372 0
0.293333322 -0.1133333372 0
0.2800000012 -0.1133333372 0
0.2666666804 -0.1133333372 0
0.25333333 -0.1133333372 0
0.2399999948 -0.1133333372 0
0.226666674 -0.1133333372 0
0.2133333384 -0.1133333372 0
0.2000000028 -0.1133333372 0
0.1866666676 -0.1133333372 0
0.173333332 -0.1133333372 0
0.1599999964 -0.1133333372 0
0.1466666608 -0.1133333372 0
0.1333333404 -0.1133333372 0
0.1199999972 -0.1133333372 0
0.1066666692 -0.1133333372 0
0.0933333336 -0.1133333372 0
0.0799999984 -0.1133333372 0
0.06666667 -0.1133333372 0
0.0533333348 -0.1133333372 0
0.03999999912 -0.1133333372 0
0.02666666732 -0.1133333372 0
0.01333333364 -0.1133333372 0
0.0 -0.1133333372 0
0.400000004 -0.1266666652 0
0.3866666556 -0.1266666652 0
0.3733333348 -0.1266666652 0
[...]
POINT_DATA 961
SCALARS Temp float 1
LOOKUP_TABLE default
0.7038954233668917
0.7320092193243812
0.7521846786735138
0.766854214719022
0.7776027032030232
0.7855169287700603
0.7913706143310401
0.7957206559202284
0.798972385020772
0.8014227927856541
0.8032920726421946
0.8047454920166294
0.8059093500106796
0.8068833966933192
0.8077500996168457
0.8085819947848438
0.809448418060082
0.8104216930687869
0.8115836319363822
0.8130329722539087
0.8148944342045995
0.8173306447234034
0.8205573372477988
0.8248649479788597
0.8306476093014407
0.8384442966185395
0.8489974505710643
0.863338740130339
0.8829196969241291
0.9098469139044933
0.947461977814796
0.7429483135399223
0.7705158747850763
0.790474633963431
0.8050638698512047
0.8157754475106521
0.823674519266382
0.8295236372052028
0.8338743807946186
0.8371293034372398
0.8395839507841647
0.8414577741264846
0.8429156917959997
0.8440838794062355
0.8450620844145132
0.8459328389408238
0.8467687831000349
0.8476393712878367
0.8486170450375945
0.8497837159774648
0.8512381766968561
0.8531051165198086
0.855546966522769
0.8587789796228835
0.8630905857060691
0.8688739686686934
0.8766643920097852
0.8871971637797292
0.9014892093431548
0.92096136360829
0.947614040599509
0.9843446818488554
2.5713682900826607
2.575463865043444
2.5868783427956696
2.5974058790857524
2.6061112476056185
2.6130374225475332
2.618460354600227
2.6226779442261745
2.6259544319719326
2.6285091290399354
2.6305194678295463
2.6321281094649884
2.633450646779993
2.634582808827988
2.6356068724857398
2.636597395381191
2.6376265476595986
2.638769341028891
2.6401090376282363
2.6417430748445905
2.643789836918553
2.6463964975553407
2.649748068828761
2.654077300708228
2.659673885564515
2.6668882483438514
2.676116352219111
2.6877250991258768
2.7017710186100095
2.716996647902305
2.7224628124903676
4.377001590012025
4.379236584386429
4.384722097055108
4.391576396989259
4.398075214761655
4.403709425650434
4.408396303637598
4.412214710344207
4.415295070839306
4.417774840893721
4.419781528395026
4.42142762009153
4.422810796728066
4.424016423611243
4.425120925364675
4.426195486779023
4.427309884568703
4.428536393639102
4.429953799227196
4.431651525587832
4.433733793291534
4.436323515489174
4.439565080010571
4.443624280526692
4.448681256328472
4.454907511864417
4.462406355551263
4.471065706266518
4.480203936378668
4.487519409193451
4.490499975964237
6.1773021029784285
6.178491497511049
6.181705919102881
6.1860580995656385
6.190692739593974
6.195047360558691
6.198890453709945
6.202167356831817
6.204909578848999
6.207185666698601
6.209076420839798
6.210663105680452
6.212022636114532
6.213226470189625
6.214341419320295
6.215431463368581
6.216560083856413
6.217792814900168
6.2191998177614005
6.220858251715937
6.2228540732572855
6.225282610050078
6.22824661116317
6.231849504198165
6.236179387913897
6.241275660800961
6.247063329382231
6.253231664851503
6.259028715392877
6.263312069473308
6.264897282611122
7.974384832210028
7.97510920992293
7.977113532069761
7.979983121524714
7.983238042271518
7.986495446421986
7.989521551324273
7.992210872350679
7.994539034491202
7.996527157833684
7.998219297548833
7.9996693360794096
8.000934026504975
8.002069826276145
8.00313196279603
8.004174797753386
8.005252903911018
8.00642243100332
8.007742434921338
8.009275807421774
8.011089302905884
8.013251896277593
8.015830168374897
8.018878755070526
8.022422617037968
8.026426680641672
8.03074820785217
8.035073631898664
8.038890863953894
8.041558602843642
8.042522986139863
9.76930146386677
9.769762755031085
9.771063232800483
9.772985637277792
9.77525837961249
9.777633404376925
9.77993081600468
9.78204516924151
9.783930929801508
9.785582909413261
9.78702036552076
9.78827599081625
9.7893890786248
9.790401719634668
9.79135700035353
9.792298465495387
9.793270307604258
9.794317849197196
9.79548795472595
9.796828975710534
9.798389722422755
9.800216773260855
9.802349098317
9.804808729959738
9.807585877582856
9.81061750682774
9.813761155354742
9.816775374663594
9.819328129600152
9.821056273491404
9.821669462020717
11.562515630848829
11.562812679419
11.563659386631034
11.564937182140074
11.566489456708842
11.56816145024671
11.569828302830011
11.571406003030377
11.57284907560934
11.574142003478672
11.57528984278106
11.576310503510127
11.577229297201876
11.578075499942832
11.578880412968791
11.579676444530039
11.580496805906488
11.581375453791335
11.582346954603159
11.583445919584557
11.584705590154021
11.586155059605598
11.587814471165458
11.589687592278139
11.591751370696095
11.593943260365208
11.596149717500118
11.598202997991386
11.599895760984671
11.601018439655073
11.601412468950802
13.354257623858276
13.354440881123741
13.354967060024977
13.355772076896422
13.356768367752743
13.357864930894536
13.358983369336805
13.360066311544523
13.361078750446381
13.362004885394688
13.36284334494111
13.363602561254565
13.364297125313483
13.364945267028027
13.365567277134101
13.36618461901677
13.366819472466318
13.367494450056778
13.368232247975339
13.369054975193636
13.369982870264018
13.371032085462458
13.372211187675003
13.373516200656058
13.374924339017202
13.376387533070016
13.377828177088112
13.379140836473788
13.38020347755419
13.380898831436463
13.381141136804226
15.144639673501967
15.144735402923333
15.145011786836925
15.145439162357528
15.145976119211152
15.146578234291747
15.147205586062839
15.147827308679815
15.14842303896928
15.148982075709599
15.149501444983386
15.149983747263237
15.150435303982453
15.150864779726488
15.151282248146622
15.151698603746814
15.152125198147035
15.15257356465675
15.153055103401906
15.15358058992086
15.154159358371208
15.154798010885594
15.155498514117857
15.156255683878905
15.157054266650876
15.157866306512812
15.158650006044713
15.159351614705963
15.159911502741263
15.160274164729541
15.160399873445124
16.93371559199035
16.933735663571227
16.93379464146655
16.933889042723045
16.934013747375428
16.934162805147327
16.934330231987566
16.934510626800787
16.934699547949684
16.934893650732324
16.93509065877319
16.935289230129452
16.935488780191044
16.935689301086807
16.935891190587512
16.93609509611219
16.936301772743107
16.93651194373983
16.936726154330877
16.936944608254365
16.937166978528783
16.93739219151511
16.93761818749247
16.93784169102903
16.938058033223395
16.938261109832304
16.938443568261402
16.938597304284187
16.93871428778681
16.93878762207448
16.93881262115719
17.033535352752665
17.033551897081654
17.033600692309285
17.03367935785872
17.03378433085684
17.03391135924149
17.034056015865566
17.03421412952518
17.034382086675187
17.03455698392514
17.034736664367863
17.034919665032117
17.03510511470108
17.0352926118569
17.03548209479867
17.03567371249282
17.03586769985158
17.036064251666343
17.036263391669987
17.036464832233577
17.036667822431454
17.036870989206747
17.03707217895266
17.037268329984926
17.03745540550222
17.03762844067879
17.037781750705513
17.03790932956065
17.038005428302217
17.038065238538167
17.038085551428384
17.133251972524146
17.133265875981966
17.13330700115488
17.133373672988828
17.13346334795366
17.133572924498058
17.13369908086181
17.133838575257485
17.133988476792027
17.134146303451015
17.134310081944378
17.134478338511478
17.13465004431419
17.13482453605874
17.13500142075497
17.135180473247363
17.13536153239331
17.135544393724775
17.13572869886966
17.135913821220395
17.136098749229724
17.136281974366213
17.13646139124492
17.136634234738548
17.136797072216268
17.13694588370283
17.13707625125747
17.13718366474128
17.137263925807254
17.137313596993824
17.13733041718327
17.232870456637432
17.232882333436127
17.232917543593796
17.232974876982627
17.23305247384811
17.233148025390612
17.233258999698734
17.23338285143015
17.233517194821246
17.233659918386774
17.23380924818349
17.233963759568184
17.234122351312024
17.234284195860667
17.2344486713993
17.234615283220066
17.234783580854074
17.234953070790997
17.2351231272583
17.235292902821435
17.235461241936505
17.23562660482046
17.235787007738686
17.235939998816402
17.23608267903595
17.236211788091037
17.236323863100658
17.23641546820637
17.236483478003866
17.236525378034184
17.236539533787116
17.3323945662937
17.332404854615206
17.33243540998434
17.332485336328645
17.332553242395957
17.33263737431988
17.33273576929395
17.33284640293621
17.332967317740195
17.333096714440554
17.333233009994157
17.33337485789081
17.333521138859346
17.33367093107887
17.333823462938447
17.333978054398237
17.33413405315335
17.33429076632347
17.33444739116056
17.334602947583683
17.334756216220217
17.334905688681598
17.335049534374328
17.335185598245932
17.33531143349134
17.335424381034837
17.335521697249163
17.335600724886543
17.335659093451444
17.335694923789937
17.335707006445027
17.43182715048882
17.43183617136565
17.43186300030046
17.431906957905884
17.431966979940107
17.43204170669211
17.43212958918294
17.43222899353651
17.432338296142913
17.432455954803086
17.432580558477483
17.432710849716504
17.43284572452238
17.43298421572186
17.43312546102736
17.433268660490743
17.433413028915552
17.433557744195138
17.43370189532941
17.433844433196004
17.43398412762947
17.434119536536592
17.434248989711485
17.434370598196658
17.434482289739808
17.434581877605567
17.434667161237027
17.43473605329391
17.434786722643427
17.434817735972434
17.43482817858207
17.52798407208124
17.527992064284938
17.528015860328416
17.5280549332278
17.528108450966386
17.528175337843862
17.528254348975842
17.528344144842038
17.528443361932936
17.52855066750245
17.5286648008301
17.52878459471321
17.52890898009529
17.529036978007113
17.529167678765145
17.529300212014938
17.529433712438863
17.529567281990087
17.5296999522294
17.529830649669915
17.52995816723725
17.530081146530577
17.53019807225054
17.530307287074603
17.530407025523946
17.530495471496618
17.530570836813528
17.53063145585297
17.530675888641237
17.530703020404967
17.530712144961907
17.617658052602692
17.617665197073773
17.617686487796515
17.617721506883747
17.617769589921966
17.617829868752672
17.617901324479792
17.617982841190308
17.61807325866003
17.618171414285488
17.618276176731662
17.61838646524791
17.6185012565592
17.618619582332318
17.618740516395263
17.6188631544261
17.61898659020504
17.619109889031723
17.619232061495843
17.6193520401282
17.619468661487915
17.619580657430703
17.619686655972803
17.61978519821598
17.619874768809716
17.61995384318054
17.62002094861047
17.62007473507572
17.620114050365984
17.620138011096557
17.62014606128525
17.700817633120696
17.700824071560014
17.700843271620062
17.700874894704405
17.700918399078393
17.700973070145757
17.70103805869529
17.70111241998208
17.70119515334267
17.70128523431425
17.701381641901285
17.701483375408806
17.701589462221204
17.701698958800662
17.701810943635817
17.70192450419702
17.702038721347233
17.70215265150771
17.70226530930686
17.702375652796523
17.702482573249043
17.702584892491682
17.70268136753274
17.70277070766739
17.702851601040532
17.70292275309672
17.702982934131622
17.703031032684645
17.703066110891154
17.70308745585563
17.703094621470647
17.77743358269423
17.77743942850539
17.77745687083266
17.777485629505083
17.777525253750216
17.77757514392863
17.777634579526865
17.777702747885712
17.777778774270516
17.777861746580307
17.777950737470047
17.77804481883247
17.778143069744175
17.778244579699734
17.778348445622782
17.77845376421945
17.77855962257605
17.77866508701425
17.778769192479768
17.778870934120008
17.778969262583487
17.779063085365678
17.779151273517
17.77923267799741
17.779306152486264
17.779370584635238
17.77942493326286
17.77946826894759
17.779499815299634
17.779518986650025
17.779525418373808
17.847478854337407
17.847484200217767
17.84750015774439
17.847526490331113
17.847562815443247
17.847608620425863
17.84766328330395
17.84772609414915
17.847796278186614
17.847873014956896
17.84795545638882
17.848042739235176
17.84813399283627
17.848228343748584
17.848324915614853
17.848422825478096
17.848521178990303
17.848619064285764
17.848715546389393
17.84880966343679
17.84890042583931
17.848986820225083
17.849067817193408
17.849142386519297
17.849209516630616
17.84926824009657
17.84931766294493
17.849356995846037
17.84938558528098
17.849402941589304
17.849408761298605
17.910928568883538
17.910933492180625
17.91094819323354
17.91097246832013
17.91100598661994
17.91104830191815
17.911098868318824
17.91115705635218
17.911222170996467
17.911293466711285
17.91137016237198
17.911451452006993
17.911536512231724
17.91162450772746
17.911714593106375
17.91180591209698
17.911897596136715
17.911988761946745
17.91207850961571
17.912165922152873
17.91225006732509
17.912330003229336
17.912404786471026
17.912473486113075
17.912535200323532
17.912589077315662
17.912634338696797
17.912670303719807
17.912696413152755
17.91271225046901
17.912717558553624
17.96776039652899
17.96776496308019
17.96777860245233
17.96780113591807
17.967832272170334
17.967871616123123
17.96791868100344
17.967972900687528
17.968033644006166
17.96810022671837
17.968171924039112
17.968247980007924
17.96832761455279
17.96841002946877
17.96849441166035
17.968579934384714
17.968665758290914
17.968751031683436
17.968834891254424
17.968916463991853
17.9689948708305
17.969069233209577
17.969138681314814
17.969202366819566
17.969259477197795
17.96930925311204
17.969351007252264
17.96938414346851
17.96940817534023
17.969422742449986
17.969427623096802
18.01795385720893
18.017958124145313
18.01797087120509
18.017991938779804
18.01802106591322
18.01805789704749
18.018101991525214
18.018152833216114
18.018209842105453
18.018272384009517
18.01833978127307
18.01841132105656
18.018486262043943
18.018563840697002
18.01864327543686
18.018723769343374
18.018804512938214
18.018884686371837
18.018963462034783
18.01904000810262
18.01911349339324
18.019183094484116
18.01924800382308
18.019307441383123
18.019360667087618
18.01940699544734
18.019445811000455
18.019476583662264
18.019498883430575
18.01951239311519
18.019516918195396
18.06149128085152
18.0614952986732
18.061507303383742
18.06152715002102
18.06155460096669
18.061589331234234
18.06163093611561
18.061678938861387
18.061732800286634
18.06179192682774
18.061855679859228
18.061923383140467
18.061994329205994
18.062067785755634
18.06214300046619
18.062219204707553
18.062295617549594
18.06237144930438
18.062445905449138
18.062518191288508
18.062587517594864
18.06265310801288
18.062714206947046
18.062770090282108
18.062820076307958
18.06286353824467
18.06289991713207
18.062928734387018
18.06294960368961
18.062962241150935
18.062966473120156
18.09835693266631
18.09836074681703
18.098372144316322
18.09839099136758
18.09841706820234
18.098450073335467
18.09848962988596
18.09853529186452
18.098586552340635
18.09864285029094
18.09870357888551
18.09876809229204
18.098835711797115
18.098905732248287
18.098977427280293
18.0990500537299
18.099122856487178
18.099195072976276
18.099265937977858
18.099334689039097
18.09940057260735
18.099462851554915
18.099520812815957
18.099573777331948
18.09962110980572
18.099662229624265
18.09969662184969
18.099723847726935
18.09974355452034
18.099755483833686
18.099759477947106
18.128537746309664
18.128541398391118
18.128552312533685
18.12857036332589
18.128595344441784
18.128626972171286
18.12866489080334
18.128708677928262
18.12875785157444
18.128811876188543
18.128870170166174
18.128932112175303
18.12899704706022
18.129064292288216
18.129133143442317
18.12920287910669
18.129272766288064
18.129342065533194
18.129410036354738
18.12947594312966
18.12953906153294
18.12959868608771
18.129654137563396
18.12970477230229
18.129749991082303
18.129789248846954
18.12982206430516
18.129848028954584
18.12986681544543
18.129878184581735
18.12988199061373
18.152022972635177
18.152026501372927
18.15203704755462
18.152054491864018
18.152078637768994
18.152109214555264
18.152145882062822
18.152188235309296
18.152235810908408
18.152288092444614
18.152344517466872
18.152404483465215
18.1524673536079
18.152532463171422
18.152599125198545
18.152666635691173
18.152734279405355
18.152801335387316
18.15286708279185
18.152930807089653
18.152991806675388
18.15304940039713
18.153102934751615
18.15315179274087
18.153195402082144
18.153233244079814
18.153264862236977
18.15328987023408
18.15330795926298
18.153318904110836
18.153322567728814
18.168804103606075
18.16880754564101
18.16881783311949
18.168834850866194
18.168858409014035
18.168888245716417
18.168924031462435
18.168965373258605
18.16901182057578
18.16906287032637
18.169117973500118
18.16917654090719
18.16923794879775
18.169301545269825
18.169366656024614
18.16943258974942
18.169498644143975
18.169564111716618
18.169628285844276
18.169690467164532
18.169749970279096
18.1698061312485
18.16985831463488
18.169905922029397
18.169948399817333
18.16998524747255
18.170016025510566
18.170040362776163
18.17005796309927
18.170068610777253
18.170072174670445
18.17887520778035
18.17887859833901
18.17888873220391
18.178905496603345
18.17892870554359
18.178958102340545
18.17899336369785
18.17903410363968
18.179079879190954
18.17913019512902
18.179184510414924
18.179242243801582
18.179302779383637
18.179365472988255
18.17942965798081
18.179494650750545
18.179559756862023
18.17962427699255
18.179687513122094
18.17974877502269
18.179807387007834
18.17986269539923
18.17991407547497
18.17996093980259
18.18000274574551
18.18003900342466
18.1800692832948
18.18009322303831
18.18011053383611
18.180121005509136
18.180124510346502
18.182232633085427
18.182236006574914
18.18224608949952
18.182262769875702
18.182285862980468
18.182315113825016
18.1823502011561
18.18239074130871
18.18243629379963
18.182486366006415
18.182540419531993
18.182597875768604
18.18265812142474
18.182720514909587
18.182784392154193
18.182849072129542
18.182913863037463
18.182978068292776
18.1830409927541
18.1831019492434
18.18316026530901
18.183215290681733
18.18326640419135
18.183313022035033
18.18335460519907
18.18339066731193
18.183420782097738
18.183444590142376
18.183461805039407
18.183472218421382
18.183475703701397
