# vtk DataFile Version 2.0
Unstructured Grid Example
ASCII
DATASET UNSTRUCTURED_GRID

POINTS 961 float
0.400000004 0.01999999956 0
0.3866666556 0.01999999956 0
0.3733333348 0.01999999956 0
0.3600000144 0.01999999956 0
0.346666664 0.01999999956 0
0.3333333432 0.01999999956 0
0.3199999928 0.01999999956 0
0.3066666724 0.01999999956 0
0.293333322 0.01999999956 0
0.2800000012 0.01999999956 0
0.2666666804 0.01999999956 0
0.25333333 0.01999999956 0
0.2399999948 0.01999999956 0
0.226666674 0.01999999956 0
0.2133333384 0.01999999956 0
0.2000000028 0.01999999956 0
0.1866666676 0.01999999956 0
0.173333332 0.01999999956 0
0.1599999964 0.01999999956 0
0.1466666608 0.01999999956 0
0.1333333404 0.01999999956 0
0.1199999972 0.01999999956 0
0.1066666692 0.01999999956 0
0.0933333336 0.01999999956 0
0.0799999984 0.01999999956 0
0.06666667 0.01999999956 0
0.0533333348 0.01999999956 0
0.03999999912 0.01999999956 0
0.02666666732 0.01999999956 0
0.01333333364 0.01999999956 0
0.0 0.01999999956 0
0.400000004 0.00666666684 0
0.3866666556 0.00666666684 0
0.3733333348 0.00666666684 0
0.3600000144 0.00666666684 0
0.346666664 0.00666666684 0
0.3333333432 0.00666666684 0
0.3199999928 0.00666666684 0
0.3066666724 0.00666666684 0
0.293333322 0.00666666684 0
0.2800000012 0.00666666684 0
0.2666666804 0.00666666684 0
0.25333333 0.00666666684 0
0.2399999948 0.00666666684 0
0.226666674 0.00666666684 0
0.2133333384 0.00666666684 0
0.2000000028 0.00666666684 0
0.1866666676 0.00666666684 0
0.173333332 0.00666666684 0
0.1599999964 0.00666666684 0
0.1466666608 0.00666666684 0
0.1333333404 0.00666666684 0
0.1199999972 0.00666666684 0
0.1066666692 0.00666666684 0
0.0933333336 0.00666666684 0
0.0799999984 0.00666666684 0
0.06666667 0.00666666684 0
0.0533333348 0.00666666684 0
0.03999999912 0.00666666684 0
0.02666666732 0.00666666684 0
0.01333333364 0.00666666684 0
0.0 0.00666666684 0
0.400000004 -0.00666666684 0
0.3866666556 -0.00666666684 0
0.3733333348 -0.00666666684 0
0.3600000144 -0.00666666684 0
0.346666664 -0.00666666684 0
0.3333333432 -0.00666666684 0
0.3199999928 -0.00666666684 0
0.3066666724 -0.00666666684 0
0.293333322 -0.00666666684 0
0.2800000012 -0.00666666684 0
0.2666666804 -0.00666666684 0
0.25333333 -0.00666666684 0
0.2399999948 -0.00666666684 0
0.226666674 -0.00666666684 0
0.2133333384 -0.00666666684 0
0.2000000028 -0.00666666684 0
0.1866666676 -0.00666666684 0
0.173333332 -0.00666666684 0
0.1599999964 -0.00666666684 0
0.1466666608 -0.00666666684 0
0.1333333404 -0.00666666684 0
0.1199999972 -0.00666666684 0
0.1066666692 -0.00666666684 0
0.0933333336 -0.00666666684 0
0.0799999984 -0.00666666684 0
0.06666667 -0.00666666684 0
0.0533333348 -0.00666666684 0
0.03999999912 -0.00666666684 0
0.02666666732 -0.00666666684 0
0.01333333364 -0.00666666684 0
0.0 -0.00666666684 0
0.400000004 -0.01999999956 0
0.3866666556 -0.01999999956 0
0.3733333348 -0.01999999956 0
0.3600000144 -0.01999999956 0
0.346666664 -0.01999999956 0
0.3333333432 -0.01999999956 0
0.3199999928 -0.01999999956 0
0.3066666724 -0.01999999956 0
0.293333322 -0.01999999956 0
0.2800000012 -0.01999999956 0
0.2666666804 -0.01999999956 0
0.25333333 -0.01999999956 0
0.2399999948 -0.01999999956 0
0.226666674 -0.01999999956 0
0.2133333384 -0.01999999956 0
0.2000000028 -0.01999999956 0
0.1866666676 -0.01999999956 0
0.173333332 -0.01999999956 0
0.1599999964 -0.01999999956 0
0.1466666608 -0.01999999956 0
0.1333333404 -0.01999999956 0
0.1199999972 -0.01999999956 0
0.1066666692 -0.01999999956 0
0.0933333336 -0.01999999956 0
0.0799999984 -0.01999999956 0
0.06666667 -0.01999999956 0
0.0533333348 -0.01999999956 0
0.03999999912 -0.01999999956 0
0.02666666732 -0.01999999956 0
0.01333333364 -0.01999999956 0
0.0 -0.01999999956 0
0.400000004 -0.03333333508 0
0.3866666556 -0.03333333508 0
0.3733333348 -0.03333333508 0
0.3600000144 -0.03333333508 0
0.346666664 -0.03333333508 0
0.3333333432 -0.03333333508 0
0.3199999928 -0.03333333508 0
0.3066666724 -0.03333333508 0
0.293333322 -0.03333333508 0
0.2800000012 -0.03333333508 0
0.2666666804 -0.03333333508 0
0.25333333 -0.03333333508 0
0.2399999948 -0.03333333508 0
0.226666674 -0.03333333508 0
0.2133333384 -0.03333333508 0
0.2000000028 -0.03333333508 0
0.1866666676 -0.03333333508 0
0.173333332 -0.03333333508 0
0.1599999964 -0.03333333508 0
0.1466666608 -0.03333333508 0
0.1333333404 -0.03333333508 0
0.1199999972 -0.03333333508 0
0.1066666692 -0.03333333508 0
0.0933333336 -0.03333333508 0
0.0799999984 -0.03333333508 0
0.06666667 -0.03333333508 0
0.0533333348 -0.03333333508 0
0.03999999912 -0.03333333508 0
0.02666666732 -0.03333333508 0
0.01333333364 -0.03333333508 0
0.0 -0.03333333508 0
0.400000004 -0.0466666668 0
0.3866666556 -0.0466666668 0
0.3733333348 -0.0466666668 0
0.3600000144 -0.0466666668 0
0.346666664 -0.0466666668 0
0.3333333432 -0.0466666668 0
0.3199999928 -0.0466666668 0
0.3066666724 -0.0466666668 0
0.293333322 -0.0466666668 0
0.2800000012 -0.0466666668 0
0.2666666804 -0.0466666668 0
0.25333333 -0.0466666668 0
0.2399999948 -0.0466666668 0
0.226666674 -0.0466666668 0
0.2133333384 -0.0466666668 0
0.2000000028 -0.0466666668 0
0.1866666676 -0.0466666668 0
0.173333332 -0.0466666668 0
0.1599999964 -0.0466666668 0
0.1466666608 -0.0466666668 0
0.1333333404 -0.0466666668 0
0.1199999972 -0.0466666668 0
0.1066666692 -0.0466666668 0
0.0933333336 -0.0466666668 0
0.0799999984 -0.0466666668 0
0.06666667 -0.0466666668 0
0.0533333348 -0.0466666668 0
0.03999999912 -0.0466666668 0
0.02666666732 -0.0466666668 0
0.01333333364 -0.0466666668 0
0.0 -0.0466666668 0
0.400000004 -0.0599999988 0
0.3866666556 -0.0599999988 0
0.3733333348 -0.0599999988 0
0.3600000144 -0.0599999988 0
0.346666664 -0.0599999988 0
0.3333333432 -0.0599999988 0
0.3199999928 -0.0599999988 0
0.3066666724 -0.0599999988 0
0.293333322 -0.0599999988 0
0.2800000012 -0.0599999988 0
0.2666666804 -0.0599999988 0
0.25333333 -0.0599999988 0
0.2399999948 -0.0599999988 0
0.226666674 -0.0599999988 0
0.2133333384 -0.0599999988 0
0.2000000028 -0.0599999988 0
0.1866666676 -0.0599999988 0
0.173333332 -0.0599999988 0
0.1599999964 -0.0599999988 0
0.1466666608 -0.0599999988 0
0.1333333404 -0.0599999988 0
0.1199999972 -0.0599999988 0
0.1066666692 -0.0599999988 0
0.0933333336 -0.0599999988 0
0.0799999984 -0.0599999988 0
0.06666667 -0.0599999988 0
0.0533333348 -0.0599999988 0
0.03999999912 -0.0599999988 0
0.02666666732 -0.0599999988 0
0.01333333364 -0.0599999988 0
0.0 -0.0599999988 0
0.400000004 -0.0733333304 0
0.3866666556 -0.0733333304 0
0.3733333348 -0.0733333304 0
0.3600000144 -0.0733333304 0
0.346666664 -0.0733333304 0
0.3333333432 -0.0733333304 0
0.3199999928 -0.0733333304 0
0.3066666724 -0.0733333304 0
0.293333322 -0.0733333304 0
0.2800000012 -0.0733333304 0
0.2666666804 -0.0733333304 0
0.25333333 -0.0733333304 0
0.2399999948 -0.0733333304 0
0.226666674 -0.0733333304 0
0.2133333384 -0.0733333304 0
0.2000000028 -0.0733333304 0
0.1866666676 -0.0733333304 0
0.173333332 -0.0733333304 0
0.1599999964 -0.0733333304 0
0.1466666608 -0.0733333304 0
0.1333333404 -0.0733333304 0
0.1199999972 -0.0733333304 0
0.1066666692 -0.0733333304 0
0.0933333336 -0.0733333304 0
0.0799999984 -0.0733333304 0
0.06666667 -0.0733333304 0
0.0533333348 -0.0733333304 0
0.03999999912 -0.0733333304 0
0.02666666732 -0.0733333304 0
0.01333333364 -0.0733333304 0
0.0 -0.0733333304 0
0.400000004 -0.086666666 0
0.3866666556 -0.086666666 0
0.3733333348 -0.086666666 0
0.3600000144 -0.086666666 0
0.346666664 -0.086666666 0
0.3333333432 -0.086666666 0
0.3199999928 -0.086666666 0
0.3066666724 -0.086666666 0
0.293333322 -0.086666666 0
0.2800000012 -0.086666666 0
0.2666666804 -0.086666666 0
0.25333333 -0.086666666 0
0.2399999948 -0.086666666 0
0.226666674 -0.086666666 0
0.2133333384 -0.086666666 0
0.2000000028 -0.086666666 0
0.1866666676 -0.086666666 0
0.173333332 -0.086666666 0
0.1599999964 -0.086666666 0
0.1466666608 -0.086666666 0
0.1333333404 -0.086666666 0
0.1199999972 -0.086666666 0
0.1066666692 -0.086666666 0
0.0933333336 -0.086666666 0
0.0799999984 -0.086666666 0
0.06666667 -0.086666666 0
0.0533333348 -0.086666666 0
0.03999999912 -0.086666666 0
0.02666666732 -0.086666666 0
0.01333333364 -0.086666666 0
0.0 -0.086666666 0
0.400000004 -0.1000000016 0
0.3866666556 -0.1000000016 0
0.3733333348 -0.1000000016 0
0.3600000144 -0.1000000016 0
0.346666664 -0.1000000016 0
0.3333333432 -0.1000000016 0
0.3199999928 -0.1000000016 0
0.3066666724 -0.1000000016 0
0.293333322 -0.1000000016 0
0.2800000012 -0.1000000016 0
0.2666666804 -0.1000000016 0
0.25333333 -0.1000000016 0
0.2399999948 -0.1000000016 0
0.226666674 -0.1000000016 0
0.2133333384 -0.1000000016 0
0.2000000028 -0.1000000016 0
0.1866666676 -0.1000000016 0
0.173333332 -0.1000000016 0
0.1599999964 -0.1000000016 0
0.1466666608 -0.1000000016 0
0.1333333404 -0.1000000016 0
0.1199999972 -0.1000000016 0
0.1066666692 -0.1000000016 0
0.0933333336 -0.1000000016 0
0.0799999984 -0.1000000016 0
0.06666667 -0.1000000016 0
0.0533333348 -0.1000000016 0
0.03999999912 -0.1000000016 0
0.02666666732 -0.1000000016 0
0.01333333364 -0.1000000016 0
0.0 -0.1000000016 0
0.400000004 -0.1133333372 0
0.3866666556 -0.1133333372 0
0.3733333348 -0.1133333372 0
0.3600000144 -0.1133333372 0
0.346666664 -0.1133333372 0
0.3333333432 -0.1133333372 0
0.3199999928 -0.1133333372 0
0.3066666724 -0.1133333372 0
0.293333322 -0.1133333372 0
0.2800000012 -0.1133333372 0
0.2666666804 -0.1133333372 0
0.25333333 -0.1133333372 0
0.2399999948 -0.1133333372 0
0.226666674 -0.1133333372 0
0.2133333384 -0.1133333372 0
0.2000000028 -0.1133333372 0
0.1866666676 -0.1133333372 0
0.173333332 -0.1133333372 0
0.1599999964 -0.1133333372 0
0.1466666608 -0.1133333372 0
0.1333333404 -0.1133333372 0
0.1199999972 -0.1133333372 0
0.1066666692 -0.1133333372 0
0.0933333336 -0.1133333372 0
0.0799999984 -0.1133333372 0
0.06666667 -0.1133333372 0
0.0533333348 -0.1133333372 0
0.03999999912 -0.1133333372 0
0.02666666732 -0.1133333372 0
0.01333333364 -0.1133333372 0
0.0 -0.1133333372 0
0.400000004 -0.1266666652 0
0.3866666556 -0.1266666652 0
0.3733333348 -0.1266666652 0
[...]
POINT_DATA 961
SCALARS Temp float 1
LOOKUP_TABLE default
0.6994374922768187
0.7273732362422649
0.7474209171382726
0.7619975432755982
0.772677953073142
0.7805420483908478
0.7863586520613255
0.7906811332692791
0.7939122565549424
0.79634713228535
0.7982045594907765
0.7996487590691622
0.8008052303973306
0.8017730919662843
0.8026342892079783
0.8034608989054394
0.8043218179661304
0.8052889121335939
0.8064434755488832
0.8078836206127528
0.8097332777464605
0.8121540440267881
0.8153602866663002
0.8196406024908605
0.8253866277261009
0.8331339242235487
0.8436202303907288
0.857870681095551
0.8773276146088878
0.90408428162231
0.9414611046438505
0.7382430527606758
0.7656360214141082
0.785468374427131
0.7999652087627145
0.8106089412185737
0.8184579783403568
0.8242700428878545
0.828593221154742
0.8318275172003626
0.8342666050506586
0.8361285463064915
0.837577214989485
0.8387379877780218
0.8397099805760276
0.8405752029825404
0.8414058352410082
0.842270892049712
0.8432423563211959
0.8444016210775858
0.8458468533780318
0.8477019529881459
0.8501283223744341
0.8533398512798653
0.8576241365955458
0.8633708784058118
0.8711119501735719
0.8815780028958121
0.8957795212182629
0.9151283411171498
0.9416122068545651
0.9781102087960035
2.5550832859033017
2.5591529197874716
2.5704950984852006
2.5809559473280324
2.5896061631711937
2.5964884482599264
2.6018770058974825
2.606067850200492
2.609323548594292
2.6118620237531993
2.613859584816609
2.615457989898401
2.6167721002814632
2.617897039293512
2.6189145632980795
2.619898758307789
2.6209213379757297
2.6220568395165644
2.623387998311684
2.625011635194419
2.6270453851614777
2.6296354903060606
2.6329657914048576
2.6372675647401516
2.6428286683041797
2.649997307964706
2.659166939349812
2.670702140868928
2.684659084281389
2.6997882713283823
2.7052198123191245
4.349281161396095
4.351501996218506
4.356952753470215
4.363763619715971
4.370221245985221
4.3758197323236026
4.380476877094816
4.384271043020496
4.387331829790593
4.389795823347325
4.3917897248206
4.393425309393805
4.394799640068162
4.3959975424438404
4.397094958091474
4.398162621953217
4.399269869820164
4.400488519848594
4.401896859278887
4.403583746962005
4.405652744316582
4.408225986906068
4.411446948908248
4.415480374704302
4.420505263367511
4.426692033743979
4.434143340496378
4.442747812861299
4.451828140774099
4.45909726554848
4.46205894964367
6.138180033177864
6.1393618881828695
6.142555931722899
6.146880515106783
6.151485756206376
6.155812739211397
6.159631422218126
6.162887489976037
6.1656122527526005
6.167873824367987
6.1697524946580735
6.171329014555385
6.172679813098763
6.173875897098672
6.17498365620451
6.176066666475023
6.177188008797535
6.178412803650902
6.179810769334955
6.181458577808506
6.183441642482875
6.185854688525562
6.1887998154303165
6.1923797968390275
6.196682174540492
6.201746098396798
6.2074970507016936
6.213626271355279
6.219386571658197
6.223642776079715
6.225217942210733
7.923881513475722
7.924601294663856
7.926592896452608
7.9294442682526505
7.93267851407386
7.935915211357962
7.9389220588951925
7.941594241127479
7.943907538584098
7.945882938905685
7.947564219690761
7.949004923684427
7.950261446184836
7.951389888810485
7.952445130980449
7.953481191921149
7.954552300614122
7.955714253022632
7.957025732838264
7.958549235281824
7.960351093693609
7.9624998477730085
7.965061658220739
7.968090816313435
7.971612125952191
7.975590736821958
7.9798848159654545
7.984182783484393
7.987975794613094
7.990626610436425
7.991584876786886
9.707430631737813
9.707888990436308
9.709181199093237
9.711091374128756
9.713349647323032
9.715709535066146
9.717992282156462
9.72009311240272
9.721966781345275
9.723608135197948
9.725036311229022
9.726283797007046
9.727389639050488
9.728395663620821
9.729344686564792
9.730279979082754
9.731245456125496
9.732286155458686
9.733448646990393
9.734780978227544
9.736331652448612
9.738146955095614
9.740265611373633
9.74270951589982
9.745468941711907
9.7484812551439
9.751604897422716
9.754599950349167
9.757136482592744
9.75885364812259
9.759462941922516
11.489288088505782
11.489583242576957
11.490424547876206
11.49169418542495
11.493236538544318
11.494897828267012
11.496553986691517
11.49812153596029
11.499555290579647
11.50083983369045
11.501980191561428
11.502994163075183
11.503906901926268
11.50474750136748
11.505547067063066
11.506337804740694
11.507152718100754
11.508025551534885
11.508990655267395
11.510082424001995
11.511333891204739
11.512773968371285
11.5144226734726
11.516283752245583
11.518334300408606
11.520512169798362
11.522704537287515
11.524744722459497
11.526426698679286
11.527542227163305
11.527933747589438
13.269682720030398
13.26986480113511
13.270387601143812
13.271187442756718
13.272177317393467
13.273266800856128
13.274377994142588
13.275453890837786
13.276459707624813
13.277379746226218
13.278212646406581
13.278966789658737
13.279656677451124
13.280300427274813
13.280918204498896
13.281531339786037
13.282161875701586
13.282832284853086
13.283565122895684
13.284382361917075
13.285304115327133
13.286346436000747
13.287517839297355
13.288814376687329
13.290213409401538
13.291667174259617
13.293098558838267
13.294402797806148
13.295458631577738
13.29614953484436
13.296390289981993
15.048726050287978
15.04882115542614
15.049095735113958
15.049520314917688
15.050053747799263
15.050651893345522
15.051275084562468
15.051892653139216
15.052484367237465
15.053039596074324
15.053555387494507
15.05403432866025
15.05448270432749
15.054909127723775
15.055323612339395
15.055736987401477
15.056160536398762
15.056605723358532
15.05708387992677
15.057605717035663
15.058180513244213
15.058814832228517
15.05951063134987
15.060262762184465
15.061056070492052
15.06186277978864
15.06264135943891
15.063338401052274
15.063894653899585
15.064254965088223
15.064379859601116
16.82647155497821
16.826491478829524
16.826550021595352
16.82664372305564
16.826767496787248
16.826915431744947
16.82708158373372
16.827260588215193
16.827448034395836
16.827640601808305
16.827836031846033
16.828032994682385
16.828230913254924
16.828429783770076
16.828630005645905
16.82883222646287
16.82903720082969
16.829245651734027
16.829458125212984
16.82967482788233
16.82989543886049
16.83011889515244
16.83034315370298
16.830564963178897
16.83077968730173
16.830981263206375
16.831162387217535
16.83131500839748
16.831431149039005
16.83150395724556
16.83152877738173
16.92565916793303
16.92567558660935
16.925724010413536
16.925802074528946
16.925906239777362
16.926032282592267
16.926175805847375
16.9263326671365
16.926499278548295
16.9266727581708
16.92685096615182
16.9270324524489
16.927216355256903
16.92740227967994
16.927590168627397
16.92778017443826
16.927972534900483
16.928167447935394
16.928364941441547
16.928564733832726
16.92876608301951
16.928967628534235
16.929167234076385
16.929361860749115
16.929547500409253
16.929719222427007
16.92987138037896
16.92999800826772
16.930093395129415
16.930152764157818
16.930172927520243
17.024744334819992
17.024758128862103
17.024798929728288
17.02486507367243
17.02495403443
17.025062731695506
17.02518786677529
17.025326220849102
17.02547488439862
17.025631394291565
17.02579379320943
17.025960620474425
17.026130857749568
17.026303850116403
17.026479211392026
17.026656722263937
17.026836227075773
17.02701752712022
17.02720027071191
17.02738383953168
17.027567232614594
17.027748954967528
17.02792691829213
17.028098378449627
17.02825992771303
17.02840757438298
17.028536930936195
17.028643517830083
17.02872316491144
17.028772457647978
17.028789149942828
17.12373203023959
17.12374380973801
17.123778730898383
17.123835591979947
17.123912546202284
17.124007301044927
17.124117342729125
17.124240144551102
17.124373338764354
17.124514830525737
17.124662860718203
17.124816017596693
17.12497321102635
17.12513362300922
17.125296640132525
17.125461775387528
17.125628585774535
17.125796585525105
17.12596515739589
17.12613346378493
17.126300360783397
17.126464322478704
17.126623381578785
17.12677510533044
17.126916616346705
17.127044677880566
17.12715585150153
17.127246725211798
17.127314195059224
17.127355763707147
17.12736980772108
17.222625992998402
17.222636193120564
17.222666486105005
17.22271598230874
17.222783300538495
17.22286669976453
17.222964231799864
17.22307388771113
17.22319372542306
17.223321960477108
17.223457023603345
17.223597580863327
17.223742524373126
17.223890942652766
17.22404207363605
17.224195246354427
17.224349817451095
17.2245051032509
17.224660310854233
17.22481447104689
17.224966376683067
17.225114533224755
17.22525712571955
17.22539201651264
17.225516777707533
17.225628770106233
17.225725270085885
17.225803639419087
17.22586152435314
17.22589705888461
17.22590904197149
17.321429055948514
17.321437995443983
17.321464581980603
17.32150814126775
17.321567617116962
17.321641660248293
17.321728733796267
17.321827216998127
17.3219354997197
17.322052053119723
17.322175479039167
17.322304532248367
17.322438120265684
17.322575286782325
17.322715179874212
17.322857009673967
17.32300000102767
17.323143342105098
17.32328613269022
17.323427335209207
17.32356573202815
17.323699894710003
17.323828167886514
17.323948678509257
17.324059371041237
17.32415807579253
17.324242608908893
17.324310898575817
17.324361127077932
17.32439187149434
17.32440222371388
17.416977236941694
17.41698515297611
17.417008721935424
17.41704742100995
17.41710042483616
17.417166666443855
17.417244911259978
17.417333831161912
17.41743207464015
17.417538321172795
17.417651322179786
17.417769922335488
17.41789306412134
17.41801977976192
17.418149170500765
17.418280376779546
17.418412544102985
17.41854478545403
17.41867614381076
17.41880555765259
17.418931832545137
17.419053623456648
17.419169429173138
17.41927760702603
17.419376406501762
17.41946402636804
17.419538692685187
17.41959875281011
17.419642777806867
17.41966966134742
17.419678702559235
17.50608355637827
17.50609062881927
17.506111704649044
17.506146369503938
17.506193964628743
17.50625362937293
17.50632435383733
17.506405032230685
17.50649451520326
17.506591651480324
17.506695321247854
17.50680445530059
17.506918041840912
17.5070351239024
17.5071547865932
17.50727613685693
17.507398279812325
17.507520292278063
17.50764119664824
17.507759937630567
17.5078753643882
17.50798622180365
17.508091151286852
17.50818870753686
17.50827738876631
17.50835568358701
17.50842213166262
17.508475394066018
17.50851432789435
17.50853805680938
17.508546029227606
17.588716751713104
17.58872312144068
17.5887421164017
17.588773401058837
17.588816438621205
17.588870521114515
17.588934807359315
17.58900836177992
17.589090193728637
17.58917928936726
17.589274638710005
17.58937525230268
17.589480168901414
17.589588456403526
17.589699204781407
17.589811513061463
17.589924473768075
17.59003715513889
17.590148583819563
17.590257730110462
17.59036349776688
17.590464721288114
17.590560170461732
17.59064856730255
17.590728612400536
17.590799023080635
17.590858580612515
17.590906183230928
17.59094090110764
17.590962027376275
17.590969119669968
17.664847772919845
17.664853552699253
17.664870797851584
17.66489923093011
17.664938405588202
17.664987728160888
17.665046485453328
17.665113873261426
17.665189026210065
17.665271042270184
17.66535900468798
17.66545199632562
17.665549107504308
17.665649439154357
17.665752099783372
17.665856197817
17.665960832188006
17.66606508119611
17.666167991897606
17.666268571670525
17.666365783480096
17.666458547151436
17.666545745980486
17.66662624292423
17.66669890321758
17.66676262538003
17.66681637813251
17.66685924069786
17.666890443780545
17.66690940699309
17.66691576897021
17.734449738893638
17.734455020918038
17.734470787713054
17.73449680517312
17.734532694810827
17.734577949469127
17.734631953961642
17.73469400627743
17.73476334049855
17.7348391458037
17.734920584371988
17.735006803688677
17.735096944205154
17.735190143872465
17.73528553794837
17.735382255271396
17.73547941342947
17.73557611260388
17.735671429944432
17.73576441574537
17.735854092549893
17.735939458999315
17.736019497481912
17.736093189178362
17.736159533365303
17.736217572692453
17.736266422270525
17.73630530062114
17.73633356061576
17.73635071732101
17.73635647016929
17.797497921631873
17.797502782844646
17.797517298419386
17.79754126693604
17.79757436134289
17.797616140570103
17.79766606511449
17.79772351301728
17.79778779772766
17.797858183002866
17.79793389769165
17.798014146351015
17.798098116576803
17.79818498438025
17.79827391597534
17.79836406690415
17.798454580565902
17.798544585736884
17.798633194595638
17.798719502208833
17.798802588288765
17.798881522661727
17.79895537333627
17.799023220299343
17.799084172006673
17.799137386138835
17.799182092757267
17.799217618364395
17.79924340958936
17.79925905421847
17.799264297777604
17.85397012562336
17.85397463153319
17.853988089710732
17.85401032359916
17.85404104545413
17.854079865072073
17.85412630177583
17.85417979664459
17.85423972668318
17.854305416680894
17.85437615160212
17.854451185841484
17.85452975018548
17.85461105768358
17.85469430680266
17.85477868259528
17.854863357657994
17.854947492321074
17.855030235303545
17.855110725537422
17.855188095725776
17.855261478788236
17.85533001599106
17.855392869541273
17.855449236755792
17.855498367286526
17.855539581793742
17.855572290918893
17.85559601370263
17.85561039372933
17.85561521174126
17.903845992944916
17.903850200411615
17.90386276975841
17.903883543450064
17.903912263940125
17.903948580357337
17.90399205791699
17.90404218745795
17.904098396911092
17.90416006091347
17.904226511378795
17.904297045676948
17.90437093324035
17.90444742170754
17.904525741009152
17.904605105981695
17.904684719056846
17.904763772360955
17.904841450235487
17.90491693268598
17.90498940013724
17.90505804043334
17.905122056835815
17.905180679536866
17.905233177951427
17.905278875207575
17.905317163441552
17.905347519010604
17.905369517070906
17.905382844199618
17.905387308170923
17.94710795775368
17.94711191705013
17.947123746856363
17.94714330421143
17.947170354793283
17.947204578155876
17.947245575296346
17.94729287625719
17.94734594962392
17.947404210490163
17.947467029655236
17.947533740967295
17.94760364761307
17.947676028395126
17.947750142442484
17.94782523283347
17.947900530499613
17.947975257670187
17.948048631694782
17.948119869600923
17.948188193625995
17.948252838501272
17.948313059227146
17.948368141656463
17.948417413294795
17.948460255691163
17.948496117197795
17.948524525407542
17.948545098929703
17.948557557466145
17.948561729549503
17.983740377431946
17.983744133808468
17.983755358638383
17.9837739200732
17.98379960155689
17.98383210603635
17.983871062210735
17.983916030749306
17.983966512358663
17.984021954546407
17.98408175979366
17.9841452922589
17.984211883799382
17.984280840298755
17.984351446788512
17.98442297176403
17.984494671926136
17.98456579655721
17.984635592236074
17.98470330813757
17.98476820205348
17.984829547794778
17.98488664271682
17.98493881753148
17.984985445943114
17.985025955446286
17.98505983819813
17.985086661418592
17.98510607712891
17.985117830391424
17.985121765586467
18.01373026142847
18.01373385631918
18.01374459952957
18.01376236755764
18.013786957228742
18.013818089185506
18.013855413205018
18.013898513437343
18.013946915448226
18.014000092119577
18.014057471070345
18.014118440881873
18.014182356902555
18.014248547579076
18.014316319841818
18.014384963887398
18.014453758485864
18.014521975988355
18.014588887640667
18.014653769367094
18.01471590808853
18.01477460914895
18.014829203602496
18.01487905740971
18.01492358018717
18.014962234819105
18.014994546946912
18.015020113893744
18.015038612939218
18.015049808248257
18.015053556110026
18.03706692252539
18.03707039450774
18.03708077105397
18.037097934730053
18.03712169211185
18.03715177678142
18.03718785400127
18.03722952527784
18.037276334690034
18.037327774187577
18.037383290477685
18.037442290905258
18.037504149091152
18.037568211246025
18.037633801719352
18.037700228086695
18.037766786827305
18.037832768746906
18.037897464680608
18.037960171582736
18.038020199017616
18.038076876564574
18.038129560902874
18.03817764454024
18.038220563913153
18.038257808145342
18.038288927554767
18.038313541539758
18.0383313458301
18.03834211850404
18.038345724507895
18.053741901492238
18.053745287073188
18.053755405814233
18.05377214440415
18.05379531605505
18.05382466317912
18.053859861644025
18.05390052489743
18.053946209826563
18.05399642166135
18.054050620504974
18.05410822698157
18.054168627757285
18.054231181831533
18.05429522618208
18.05436008104082
18.054425055800476
18.054489454695453
18.054552582744083
18.054613752021684
18.054672288245364
18.05472753814415
18.05477887639175
18.054825714007602
18.05486750601469
18.054903759623784
18.054934042085765
18.05495798789081
18.05497530534532
18.05498578199095
18.05498928865386
18.063749300664348
18.063752634946134
18.063762600601386
18.06377908671219
18.0638019103475
18.06383081906051
18.063865494908207
18.063905558328443
18.06395057373429
18.064000054192825
18.064053467752295
18.064110242955415
18.0641697742909
18.064231428467448
18.06429455010858
18.064358467130134
18.064422496771
18.064485951413918
18.06454814465661
18.064608397681074
18.064666045883826
18.06472044621781
18.064770984031043
18.064817081274025
18.064858203900364
18.06489386972012
18.064923655877433
18.064947205658292
18.064964234684673
18.0649745359949
18.064977983827077
18.067085488758675
18.067088806029705
18.0670987209188
18.067115123292794
18.06713783148606
18.067166594740065
18.067201097146672
18.067240961445616
18.067285754532563
18.067334992065707
18.0673881447265
18.067444643689008
18.0675038860485
18.067565241089035
18.06762805599365
18.067691661253797
18.067755376739342
18.067818517563598
18.06788040019494
18.067940348856066
18.067997702167542
18.0680518204791
18.06810209267666
18.068147944325435
18.068188844986352
18.068224315961327
18.068253937648837
18.068277356224677
18.06829428971194
18.06830453295177
18.068307961300775
