# vtk DataFile Version 2.0
Unstructured Grid Example
ASCII
DATASET UNSTRUCTURED_GRID

POINTS 961 float
0.400000004 0.01999999956 0
0.3866666556 0.01999999956 0
0.3733333348 0.01999999956 0
0.3600000144 0.01999999956 0
0.346666664 0.01999999956 0
0.3333333432 0.01999999956 0
0.3199999928 0.01999999956 0
0.3066666724 0.01999999956 0
0.293333322 0.01999999956 0
0.2800000012 0.01999999956 0
0.2666666804 0.01999999956 0
0.25333333 0.01999999956 0
0.2399999948 0.01999999956 0
0.226666674 0.01999999956 0
0.2133333384 0.01999999956 0
0.2000000028 0.01999999956 0
0.1866666676 0.01999999956 0
0.173333332 0.01999999956 0
0.1599999964 0.01999999956 0
0.1466666608 0.01999999956 0
0.1333333404 0.01999999956 0
0.1199999972 0.01999999956 0
0.1066666692 0.01999999956 0
0.0933333336 0.01999999956 0
0.0799999984 0.01999999956 0
0.06666667 0.01999999956 0
0.0533333348 0.01999999956 0
0.03999999912 0.01999999956 0
0.02666666732 0.01999999956 0
0.01333333364 0.01999999956 0
0.0 0.01999999956 0
0.400000004 0.00666666684 0
0.3866666556 0.00666666684 0
0.3733333348 0.00666666684 0
0.3600000144 0.00666666684 0
0.346666664 0.00666666684 0
0.3333333432 0.00666666684 0
0.3199999928 0.00666666684 0
0.3066666724 0.00666666684 0
0.293333322 0.00666666684 0
0.2800000012 0.00666666684 0
0.2666666804 0.00666666684 0
0.25333333 0.00666666684 0
0.2399999948 0.00666666684 0
0.226666674 0.00666666684 0
0.2133333384 0.00666666684 0
0.2000000028 0.00666666684 0
0.1866666676 0.00666666684 0
0.173333332 0.00666666684 0
0.1599999964 0.00666666684 0
0.1466666608 0.00666666684 0
0.1333333404 0.00666666684 0
0.1199999972 0.00666666684 0
0.1066666692 0.00666666684 0
0.0933333336 0.00666666684 0
0.0799999984 0.00666666684 0
0.06666667 0.00666666684 0
0.0533333348 0.00666666684 0
0.03999999912 0.00666666684 0
0.02666666732 0.00666666684 0
0.01333333364 0.00666666684 0
0.0 0.00666666684 0
0.400000004 -0.00666666684 0
0.3866666556 -0.00666666684 0
0.3733333348 -0.00666666684 0
0.3600000144 -0.00666666684 0
0.346666664 -0.00666666684 0
0.3333333432 -0.00666666684 0
0.3199999928 -0.00666666684 0
0.3066666724 -0.00666666684 0
0.293333322 -0.00666666684 0
0.2800000012 -0.00666666684 0
0.2666666804 -0.00666666684 0
0.25333333 -0.00666666684 0
0.2399999948 -0.00666666684 0
0.226666674 -0.00666666684 0
0.2133333384 -0.00666666684 0
0.2000000028 -0.00666666684 0
0.1866666676 -0.00666666684 0
0.173333332 -0.00666666684 0
0.1599999964 -0.00666666684 0
0.1466666608 -0.00666666684 0
0.1333333404 -0.00666666684 0
0.1199999972 -0.00666666684 0
0.1066666692 -0.00666666684 0
0.0933333336 -0.00666666684 0
0.0799999984 -0.00666666684 0
0.06666667 -0.00666666684 0
0.0533333348 -0.00666666684 0
0.03999999912 -0.00666666684 0
0.02666666732 -0.00666666684 0
0.01333333364 -0.00666666684 0
0.0 -0.00666666684 0
0.400000004 -0.01999999956 0
0.3866666556 -0.01999999956 0
0.3733333348 -0.01999999956 0
0.3600000144 -0.01999999956 0
0.346666664 -0.01999999956 0
0.3333333432 -0.01999999956 0
0.3199999928 -0.01999999956 0
0.3066666724 -0.01999999956 0
0.293333322 -0.01999999956 0
0.2800000012 -0.01999999956 0
0.2666666804 -0.01999999956 0
0.25333333 -0.01999999956 0
0.2399999948 -0.01999999956 0
0.226666674 -0.01999999956 0
0.2133333384 -0.01999999956 0
0.2000000028 -0.01999999956 0
0.1866666676 -0.01999999956 0
0.173333332 -0.01999999956 0
0.1599999964 -0.01999999956 0
0.1466666608 -0.01999999956 0
0.1333333404 -0.01999999956 0
0.1199999972 -0.01999999956 0
0.1066666692 -0.01999999956 0
0.0933333336 -0.01999999956 0
0.0799999984 -0.01999999956 0
0.06666667 -0.01999999956 0
0.0533333348 -0.01999999956 0
0.03999999912 -0.01999999956 0
0.02666666732 -0.01999999956 0
0.01333333364 -0.01999999956 0
0.0 -0.01999999956 0
0.400000004 -0.03333333508 0
0.3866666556 -0.03333333508 0
0.3733333348 -0.03333333508 0
0.3600000144 -0.03333333508 0
0.346666664 -0.03333333508 0
0.3333333432 -0.03333333508 0
0.3199999928 -0.03333333508 0
0.3066666724 -0.03333333508 0
0.293333322 -0.03333333508 0
0.2800000012 -0.03333333508 0
0.2666666804 -0.03333333508 0
0.25333333 -0.03333333508 0
0.2399999948 -0.03333333508 0
0.226666674 -0.03333333508 0
0.2133333384 -0.03333333508 0
0.2000000028 -0.03333333508 0
0.1866666676 -0.03333333508 0
0.173333332 -0.03333333508 0
0.1599999964 -0.03333333508 0
0.1466666608 -0.03333333508 0
0.1333333404 -0.03333333508 0
0.1199999972 -0.03333333508 0
0.1066666692 -0.03333333508 0
0.0933333336 -0.03333333508 0
0.0799999984 -0.03333333508 0
0.06666667 -0.03333333508 0
0.0533333348 -0.03333333508 0
0.03999999912 -0.03333333508 0
0.02666666732 -0.03333333508 0
0.01333333364 -0.03333333508 0
0.0 -0.03333333508 0
0.400000004 -0.0466666668 0
0.3866666556 -0.0466666668 0
0.3733333348 -0.0466666668 0
0.3600000144 -0.0466666668 0
0.346666664 -0.0466666668 0
0.3333333432 -0.0466666668 0
0.3199999928 -0.0466666668 0
0.3066666724 -0.0466666668 0
0.293333322 -0.0466666668 0
0.2800000012 -0.0466666668 0
0.2666666804 -0.0466666668 0
0.25333333 -0.0466666668 0
0.2399999948 -0.0466666668 0
0.226666674 -0.0466666668 0
0.2133333384 -0.0466666668 0
0.2000000028 -0.0466666668 0
0.1866666676 -0.0466666668 0
0.173333332 -0.0466666668 0
0.1599999964 -0.0466666668 0
0.1466666608 -0.0466666668 0
0.1333333404 -0.0466666668 0
0.1199999972 -0.0466666668 0
0.1066666692 -0.0466666668 0
0.0933333336 -0.0466666668 0
0.0799999984 -0.0466666668 0
0.06666667 -0.0466666668 0
0.0533333348 -0.0466666668 0
0.03999999912 -0.0466666668 0
0.02666666732 -0.0466666668 0
0.01333333364 -0.0466666668 0
0.0 -0.0466666668 0
0.400000004 -0.0599999988 0
0.3866666556 -0.0599999988 0
0.3733333348 -0.0599999988 0
0.3600000144 -0.0599999988 0
0.346666664 -0.0599999988 0
0.3333333432 -0.0599999988 0
0.3199999928 -0.0599999988 0
0.3066666724 -0.0599999988 0
0.293333322 -0.0599999988 0
0.2800000012 -0.0599999988 0
0.2666666804 -0.0599999988 0
0.25333333 -0.0599999988 0
0.2399999948 -0.0599999988 0
0.226666674 -0.0599999988 0
0.2133333384 -0.0599999988 0
0.2000000028 -0.0599999988 0
0.1866666676 -0.0599999988 0
0.173333332 -0.0599999988 0
0.1599999964 -0.0599999988 0
0.1466666608 -0.0599999988 0
0.1333333404 -0.0599999988 0
0.1199999972 -0.0599999988 0
0.1066666692 -0.0599999988 0
0.0933333336 -0.0599999988 0
0.0799999984 -0.0599999988 0
0.06666667 -0.0599999988 0
0.0533333348 -0.0599999988 0
0.03999999912 -0.0599999988 0
0.02666666732 -0.0599999988 0
0.01333333364 -0.0599999988 0
0.0 -0.0599999988 0
0.400000004 -0.0733333304 0
0.3866666556 -0.0733333304 0
0.3733333348 -0.0733333304 0
0.3600000144 -0.0733333304 0
0.346666664 -0.0733333304 0
0.3333333432 -0.0733333304 0
0.3199999928 -0.0733333304 0
0.3066666724 -0.0733333304 0
0.293333322 -0.0733333304 0
0.2800000012 -0.0733333304 0
0.2666666804 -0.0733333304 0
0.25333333 -0.0733333304 0
0.2399999948 -0.0733333304 0
0.226666674 -0.0733333304 0
0.2133333384 -0.0733333304 0
0.2000000028 -0.0733333304 0
0.1866666676 -0.0733333304 0
0.173333332 -0.0733333304 0
0.1599999964 -0.0733333304 0
0.1466666608 -0.0733333304 0
0.1333333404 -0.0733333304 0
0.1199999972 -0.0733333304 0
0.1066666692 -0.0733333304 0
0.0933333336 -0.0733333304 0
0.0799999984 -0.0733333304 0
0.06666667 -0.0733333304 0
0.0533333348 -0.0733333304 0
0.03999999912 -0.0733333304 0
0.02666666732 -0.0733333304 0
0.01333333364 -0.0733333304 0
0.0 -0.0733333304 0
0.400000004 -0.086666666 0
0.3866666556 -0.086666666 0
0.3733333348 -0.086666666 0
0.3600000144 -0.086666666 0
0.346666664 -0.086666666 0
0.3333333432 -0.086666666 0
0.3199999928 -0.086666666 0
0.3066666724 -0.086666666 0
0.293333322 -0.086666666 0
0.2800000012 -0.086666666 0
0.2666666804 -0.086666666 0
0.25333333 -0.086666666 0
0.2399999948 -0.086666666 0
0.226666674 -0.086666666 0
0.2133333384 -0.086666666 0
0.2000000028 -0.086666666 0
0.1866666676 -0.086666666 0
0.173333332 -0.086666666 0
0.1599999964 -0.086666666 0
0.1466666608 -0.086666666 0
0.1333333404 -0.086666666 0
0.1199999972 -0.086666666 0
0.1066666692 -0.086666666 0
0.0933333336 -0.086666666 0
0.0799999984 -0.086666666 0
0.06666667 -0.086666666 0
0.0533333348 -0.086666666 0
0.03999999912 -0.086666666 0
0.02666666732 -0.086666666 0
0.01333333364 -0.086666666 0
0.0 -0.086666666 0
0.400000004 -0.1000000016 0
0.3866666556 -0.1000000016 0
0.3733333348 -0.1000000016 0
0.3600000144 -0.1000000016 0
0.346666664 -0.1000000016 0
0.3333333432 -0.1000000016 0
0.3199999928 -0.1000000016 0
0.3066666724 -0.1000000016 0
0.293333322 -0.1000000016 0
0.2800000012 -0.1000000016 0
0.2666666804 -0.1000000016 0
0.25333333 -0.1000000016 0
0.2399999948 -0.1000000016 0
0.226666674 -0.1000000016 0
0.2133333384 -0.1000000016 0
0.2000000028 -0.1000000016 0
0.1866666676 -0.1000000016 0
0.173333332 -0.1000000016 0
0.1599999964 -0.1000000016 0
0.1466666608 -0.1000000016 0
0.1333333404 -0.1000000016 0
0.1199999972 -0.1000000016 0
0.1066666692 -0.1000000016 0
0.0933333336 -0.1000000016 0
0.0799999984 -0.1000000016 0
0.06666667 -0.1000000016 0
0.0533333348 -0.1000000016 0
0.03999999912 -0.1000000016 0
0.02666666732 -0.1000000016 0
0.01333333364 -0.1000000016 0
0.0 -0.1000000016 0
0.400000004 -0.1133333372 0
0.3866666556 -0.1133333372 0
0.3733333348 -0.1133333372 0
0.3600000144 -0.1133333372 0
0.346666664 -0.1133333372 0
0.3333333432 -0.1133333372 0
0.3199999928 -0.1133333372 0
0.3066666724 -0.1133333372 0
0.293333322 -0.1133333372 0
0.2800000012 -0.1133333372 0
0.2666666804 -0.1133333372 0
0.25333333 -0.1133333372 0
0.2399999948 -0.1133333372 0
0.226666674 -0.1133333372 0
0.2133333384 -0.1133333372 0
0.2000000028 -0.1133333372 0
0.1866666676 -0.1133333372 0
0.173333332 -0.1133333372 0
0.1599999964 -0.1133333372 0
0.1466666608 -0.1133333372 0
0.1333333404 -0.1133333372 0
0.1199999972 -0.1133333372 0
0.1066666692 -0.1133333372 0
0.0933333336 -0.1133333372 0
0.0799999984 -0.1133333372 0
0.06666667 -0.1133333372 0
0.0533333348 -0.1133333372 0
0.03999999912 -0.1133333372 0
0.02666666732 -0.1133333372 0
0.01333333364 -0.1133333372 0
0.0 -0.1133333372 0
0.400000004 -0.1266666652 0
0.3866666556 -0.1266666652 0
0.3733333348 -0.1266666652 0
[...]
POINT_DATA 961
SCALARS Temp float 1
LOOKUP_TABLE default
0.7530621439597509
0.7831401078241168
0.8047260424454116
0.8204220069713997
0.8319233852231891
0.8403927511905022
0.8466577948210257
0.8513142639805874
0.8547957751458088
0.85742004997444
0.8594226566879899
0.8609804065527773
0.8622284242775631
0.8632734336475083
0.8642036706125671
0.8650967473287255
0.8660268536043487
0.8670713769635273
0.8683178574193241
0.8698719438163622
0.8718670833402202
0.8744772780813423
0.8779333454551486
0.8825460213620984
0.8887369760621945
0.8970828309172288
0.9083778689671157
0.923725778944641
0.944679401269767
0.9734923315271825
1.013739426917203
0.7948362293861804
0.824329738105695
0.8456838420892325
0.861293901178178
0.8727558002848097
0.8812089693536949
0.8874691470195163
0.8921263927856564
0.89561135050793
0.8982401948535421
0.9002476995346249
0.9018103017962039
0.9030629936853001
0.9041124956393987
0.9050471121268108
0.9059445661217049
0.9068791736724017
0.9079284478652039
0.909180034574919
0.9107396408805672
0.9127406803274588
0.9153569448109089
0.9188187369630516
0.9234357153134078
0.9296274646684721
0.937966634191209
0.9492398748242682
0.9645351001259247
0.9853723055722761
1.0138914934310599
1.05319219559115
2.750653149997767
2.755035252170284
2.767248318826916
2.7785132224616067
2.7878292668369413
2.795242314950967
2.8010475070976666
2.8055634881200255
2.809072907426775
2.8118103575538202
2.813965634319782
2.81569133830859
2.8171111142098884
2.81832735753921
2.819428073452781
2.82049300975015
2.8215993609218075
2.822827362352914
2.8242660768954164
2.8260197333058166
2.828214970367771
2.8310092264544284
2.834600418932511
2.839237532752172
2.845230463898365
2.852954068002564
2.8628318942514763
2.8752563564699796
2.890287732816441
2.906580332586163
2.9124295429929195
4.682084619608906
4.684476225327769
4.690346364204418
4.697681788526185
4.704637691621561
4.710669288437378
4.715687988101282
4.719778086188597
4.723079053338635
4.725737889222776
4.727890955813706
4.72965854797467
4.731145122345579
4.73244196113452
4.733630782138241
4.734787697841806
4.735987314780458
4.737306912625255
4.738830736488254
4.740654413749367
4.742889401181662
4.745667152380222
4.749142092380441
4.75349154128964
4.758908156473985
4.7655753400402165
4.773603506176926
4.7828725869824735
4.792653101754044
4.80048223253816
4.803671955896978
6.607800369953516
6.609073411141932
6.612514042255047
6.6171729649051265
6.622135060546794
6.626798476191636
6.630915446703041
6.634427409602475
6.637367996558467
6.6398104674458
6.6418411937037805
6.643547044269842
6.645010235149799
6.646307144393673
6.647509178720414
6.648684715335403
6.649901598262936
6.65122986757774
6.652744513830601
6.654528014380082
6.656672257798134
6.6592791570191965
6.662458561669064
6.666321041704072
6.6709607579223
6.676419753724828
6.682617666331078
6.689221895601584
6.69542774840709
6.700012768318235
6.701709561060008
8.530059965367483
8.530835590914869
8.5329818496534
8.536055055583804
8.539541684195308
8.543032067248529
8.546276006917312
8.54916056168696
8.5516595636812
8.553795516811718
8.555615461006187
8.557176948572263
8.55854060145324
8.55976672391122
8.560914303011447
8.562041398646482
8.563206295957134
8.564468966994218
8.565892493023533
8.567544059268878
8.5694949833432
8.571818957823481
8.574587112041282
8.577857792209022
8.581657589810172
8.585948858109283
8.590578750596904
8.595211640869909
8.59929949883568
8.602156060495126
8.603188649116774
10.449985491124028
10.450479745530005
10.451873274519212
10.453933604194178
10.456370115696348
10.45891735116455
10.461382761930057
10.463653441578142
10.465680573249884
10.467458499094048
10.46900771013116
10.470363067092022
10.471566488749879
10.472662883586235
10.473698222985343
10.474718966664849
10.475772266313601
10.476906482098082
10.478171624011056
10.479619293623154
10.481301584118965
10.483268201643707
10.485560712626098
10.488202561759728
10.49118314542311
10.494434892984964
10.49780525248005
10.501035767617934
10.50377107068453
10.505622526286045
10.506279423380251
12.3680700459203
12.368388685332475
12.369297048627821
12.370668246997113
12.372334674212196
12.374130683973668
12.375922603602746
12.37762044970355
12.3791754565635
12.380570900262658
12.381812059519582
12.382917958004052
12.38391553201477
12.384835954489736
12.385712561148914
12.38657986922754
12.387473253441229
12.388428885436028
12.389483589657049
12.39067423989567
12.392036246519277
12.393600584629915
12.395388656727151
12.397404348333229
12.399622854223308
12.401977119002481
12.404345530505935
12.406548496370933
12.408364073769064
12.409567959994348
12.40999044933536
14.284557252911652
14.284754260181394
14.285320028898376
14.286185963020252
14.287258323685892
14.288439673822985
14.28964604352992
14.290815941015527
14.291911787214287
14.292916538588432
14.293828577855074
14.29465676659914
14.295416547140709
14.296127248194306
14.296810397997435
14.297488775535939
14.298185924080874
14.298925849313878
14.299732647294265
14.300629788213035
14.301638744836762
14.302776623075435
14.304052419233177
14.305461716908487
14.306979983958332
14.308555646105438
14.310105539944717
14.311516742287477
14.312658588956571
14.313405536894168
14.313665781261353
16.199564615705047
16.199668096485173
16.19996696731596
16.2004294562825
16.20101119984113
16.201664588753115
16.202346809076595
16.203024715909613
16.203676383321724
16.204290206350464
16.204862833104762
16.205396863094617
16.20589886600439
16.206377909663328
16.20684456264643
16.207310266885123
16.20778695067884
16.208286736101584
16.208821604207586
16.209402871330276
16.2100403171542
16.210740805836096
16.211506251121893
16.212330927057806
16.213198347089907
16.214078448772348
16.214926377075535
16.215684507092423
16.216288945267888
16.216680235127715
16.216815828456774
18.113147344030814
18.11317000560966
18.11323665414701
18.113343524714875
18.113485075764828
18.11365485284318
18.11384634191357
18.11405363023389
18.11427181084646
18.114497131072916
18.11472696400215
18.11495966717357
18.11519439515756
18.1154309088373
18.115669394774976
18.11591030072319
18.116154186412523
18.116401576940575
18.116652809004393
18.11690785867427
18.117166141535023
18.11742628431597
18.117685871012508
18.117941199772844
18.118187094825625
18.118416863828024
18.11862249987961
18.11879521468422
18.118926323587516
18.11900838022344
18.11903633007853
18.21991106513716
18.2199299666014
18.21998576165264
18.220075864415023
18.220196398634858
18.22034272587567
18.220509996662493
18.22069361267009
18.22088955120238
18.221094529760027
18.22130604702227
18.22152232858299
18.221742219712215
18.2219650573027
18.222190533367932
18.222418559311844
18.222649135229364
18.222882217696515
18.223117582386806
18.223354676667544
18.22359245969134
18.223829235172147
18.22406248422166
18.224288731522584
18.224503475751025
18.224701242133644
18.224875806988692
18.22502062607351
18.22512945482882
18.22519708085581
18.22522002989288
18.326560512803876
18.326576615318533
18.326624283467225
18.326701685414864
18.32680603417581
18.326933920391856
18.3270816748729
18.327245690800844
18.327422672489824
18.327609784447468
18.327804717555967
18.32800568122921
18.328211347118756
18.32842076677815
18.328633272282097
18.32884836910211
18.329065627836975
18.329284572109962
18.329504563040146
18.329724679700853
18.32994359697965
18.33015946849266
18.330369822131594
18.33057149546623
18.330760629645255
18.330932757378783
18.331083007543146
18.331206434034197
18.33129844951891
18.331355307132043
18.33137454585943
18.433100985384005
18.433114959184007
18.4331564172746
18.43322402402748
18.433315722008317
18.43342894721218
18.433560871929455
18.43370863014365
18.43386950437372
18.434041049857523
18.434221164449383
18.434408103251513
18.43460045311264
18.434797082083573
18.434997069332205
18.435199623605456
18.43540399747416
18.43560939678663
18.435814888090974
18.436019305870524
18.436221162878304
18.436418571582422
18.436609182769924
18.436790162455008
18.436958216628906
18.437109685409858
18.43724071489745
18.437347504571488
18.43742661208392
18.437475275977317
18.43749170437816
18.539536425089917
18.539548752477348
18.539585389156905
18.539645333862833
18.539727027684744
18.539828496551102
18.53994751682234
18.540081774048964
18.54022900220088
18.540387082934583
18.540554109920116
18.54072841269881
18.54090854901699
18.541093275733157
18.541281500979622
18.54147222412321
18.541664470496173
18.541857221269595
18.5420493423259
18.542239515093975
18.542426173215595
18.542607452378725
18.542781157418453
18.542944762824746
18.54309545012743
18.54323019533235
18.543345907702097
18.54343961445728
18.543508676759448
18.543551009863098
18.54356527484931
18.645869772342408
18.645880810824053
18.645913661293584
18.645967552231017
18.64604127113961
18.646133260856423
18.646241734404146
18.6463647877939
18.64650050371845
18.646647029248367
18.646802631453973
18.646965723626106
18.64713486750966
18.647308758423595
18.6474861939235
18.647666031112234
18.64784713890751
18.648028345879904
18.64820838780287
18.648385858161518
18.648559165350527
18.648726502833327
18.648885834585084
18.649034908193396
18.64917129532387
18.64929246787634
18.649395907936086
18.649479245613428
18.649540413718377
18.649577800597378
18.6495903803274
18.74862676202465
18.74863676990327
18.748666584679142
18.748715595717957
18.748782835384787
18.748867045385744
18.748966757754207
18.749080375791994
18.749206251613817
18.7493427463712
18.7494882769015
18.74964134104336
18.74980052507737
18.749964498149367
18.75013199298315
18.750301776797723
18.750472617957616
18.75064324883597
18.75081232885004
18.750978410730767
18.751139913275953
18.75129510575011
18.751442104837658
18.751578893816514
18.75170336146745
18.751813366307076
18.751906823005044
18.75198180566252
18.752036659890475
18.75207011071833
18.752081352820575
18.844311530307746
18.84432069228314
18.844348009242285
18.844392985384793
18.844454829265338
18.844532500291884
18.844624766761754
18.844730264557803
18.844847555567753
18.84497517424733
18.845111666214866
18.8452556113236
18.845405633616902
18.845560401781757
18.84571861856075
18.845879002109214
18.8460402640658
18.84620108451948
18.84636008742269
18.846515819105917
18.84666673254912
18.846811181572896
18.846947424813536
18.847073647240883
18.847187995551025
18.847288631500334
18.847373799744606
18.847441905751875
18.847491598034715
18.84752184558612
18.847532001602033
18.93289959032005
18.932908049143357
18.932933285457956
18.932974886687077
18.933032189972298
18.933104315311375
18.933190207838596
18.933288680889994
18.93339846047578
18.933518221391765
18.93364661906487
18.933782310041515
18.93392396297215
18.93407026294528
18.934219907130032
18.934371594011047
18.934524010307427
18.934675815419382
18.934825626464658
18.934972006084895
18.93511345509343
18.93524841328921
18.935375267573782
18.93549237379203
18.935598088060747
18.935690810816244
18.93576904027519
18.935831431761518
18.935876858858528
18.935904469886353
18.93591373373293
19.01437455689743
19.014382425318587
19.014405911538706
19.01444466415002
19.014498115393003
19.014565505169625
19.014645912383354
19.01473828695333
19.014841484122794
19.014954292680827
19.015075461368316
19.015203716910317
19.015337775245666
19.015476348337717
19.015618144247593
19.01576186223131
19.01590618637831
19.01604977731574
19.01619126456086
19.016329241240765
19.016462262734546
19.01658885189051
19.01670750946839
19.016816735284777
19.016915055616465
19.017001059637096
19.017073441875812
19.017131047916173
19.017172920541164
19.017198341614264
19.01720686564284
19.08872744477693
19.088734813884017
19.088756817837893
19.088793150774578
19.088843316139155
19.08890664439147
19.08898231667427
19.08906938897123
19.08916681900355
19.089273488547054
19.089388225557386
19.089509820061366
19.089637035244735
19.089768615823633
19.08990329124563
19.090039775094894
19.09017676374638
19.09031293352155
19.09044693849739
19.09057741028122
19.090702960876946
19.090822190770073
19.090933700569686
19.09103611101218
19.091128086872356
19.09120836730549
19.091275799942117
19.09132937657423
19.09136826853706
19.091391858311113
19.091399764558798
19.155955775865806
19.155962721001366
19.155983464818526
19.156017735757835
19.156065091173076
19.156124930632764
19.156196514163867
19.156278980797882
19.156371370056476
19.156472639874586
19.156581685408028
19.156697353145184
19.15681845168393
19.15694376106702
19.157072038171822
19.157202019243975
19.157332422237303
19.157461947995717
19.157589282063157
19.157713098095094
19.157832063653732
19.15794485011147
19.158050144810378
19.158146669793226
19.15823320274577
19.15830860253036
19.158371836945737
19.1584220110391
19.158458394716185
19.158480447034872
19.158487835246007
19.216062924577773
19.21606950959236
19.216089181983616
19.21612169628214
19.216166651035838
19.216223499011402
19.216291561576735
19.21637004322329
19.216458049096996
19.21655459966496
19.216658646978164
19.2167690873468
19.216884771753044
19.217004515762223
19.21712710642789
19.2172513070702
19.217375862284023
19.217499502048277
19.21762094642274
19.217738911533807
19.217852117364934
19.217959298770534
19.218059217753083
19.218150680956256
19.218232558154597
19.2183038040309
19.218363481150057
19.2184107828274
19.218445055096137
19.218465815762986
19.218472769192328
19.26905618261097
19.269062462962168
19.269081228192714
19.26911225281209
19.26915516705006
19.269209464863877
19.26927451555892
19.269349575419223
19.26943380234695
19.269526268124725
19.269625972741544
19.269731855931298
19.26984280722736
19.269957676198853
19.270075280391165
19.270194411694163
19.270313843253454
19.27043233567564
19.270548643775236
19.270661524352377
19.27076974531475
19.27087209733241
19.270967406011298
19.27105454826491
19.27113246881767
19.271200199072243
19.27125687647592
19.271301763365784
19.27133426482328
19.27135394395396
19.271360533627703
19.314946495919806
19.314952520942835
19.31497052542201
19.31500029920529
19.315041496941056
19.315093644527593
19.31515614875445
19.31522830685472
19.315309319033418
19.315398298962666
19.315494286645006
19.315596259066115
19.31570313992531
19.315813810038275
19.31592711597297
19.316041877528452
19.31615689598198
19.316270961771362
19.316382862673795
19.316491392808267
19.316595362624582
19.31669361089578
19.316785016679525
19.316868514719005
19.316943110365262
19.317007896208413
19.317062068735904
19.317104944207347
19.31713597350765
19.317154754697395
19.31716104256743
19.35374623463174
19.353752049223136
19.353769426402113
19.353798167745055
19.35383794663648
19.35388831361454
19.353948704597162
19.354018448946633
19.35409678046462
19.354182846598707
19.354275720212023
19.354374409557163
19.354477867728818
19.354585003135565
19.35469468859385
19.354805769569296
19.35491707334524
19.355027417727808
19.355135620206426
19.355240507776436
19.35534092747611
19.35543575852836
19.355523924052292
19.355604405654823
19.3556762571167
19.355738619325486
19.355790734916447
19.355831961966253
19.355861786663006
19.355879833887546
19.355885875200418
19.385468689415493
19.385474335282144
19.38549120929301
19.385519121863233
19.385557760539065
19.385606694568168
19.385665382124046
19.38573317731738
19.385809340091672
19.385893044503025
19.38598338968633
19.386079409319553
19.386180080849734
19.38628433597817
19.38639107004812
19.386499150799185
19.38660742815735
19.38671474363298
19.38681994013967
19.386921872352403
19.3870194175786
19.387111487940658
19.38719704184368
19.387275097917943
19.387344747761848
19.387405169608964
19.387455641489456
19.387495553342944
19.387524418119224
19.387541880953318
19.387547726038296
19.410126509034594
19.410132025630617
19.41014851402009
19.410175791066003
19.410213554670648
19.410261387814344
19.41031876508844
19.41038505898013
19.41045954900079
19.41054142931862
19.41062981915264
19.410723771868323
19.410822284028143
19.410924305863407
19.41102875084398
19.411134504766967
19.411240435953378
19.411345405100917
19.411448275530528
19.411547923882896
19.411643251184177
19.41173319501437
19.411816740765495
19.41189293508878
19.411960897945722
19.412019835363104
19.41206905154245
19.412107959859533
19.41213609286702
19.41215311049078
19.412158806130417
19.427730566122182
19.427735991358432
19.427752207160026
19.427779034784297
19.42781617920425
19.427863232802984
19.427919681455887
19.427984910342545
19.428058212570853
19.428138796384218
19.42822579517362
19.428318276324113
19.42841525014104
19.428515680300347
19.428618493524898
19.42872258887952
19.42882684821862
19.42893014632138
19.429031361400963
19.429129386003066
19.429223138178184
19.429311573617536
19.429393696751976
19.429468573851487
19.42953534460369
19.4295932342545
19.429641565015892
19.429679766328384
19.42970738414009
19.42972408846083
19.42972967895739
19.438289437152925
19.438294807943144
19.43831086127394
19.438337420959417
19.43837419609167
19.43842078454178
19.438476678788046
19.438541271461176
19.43861386368289
19.438693672031594
19.43877983833574
19.43887143837628
19.438967490738676
19.439066967245886
19.439168802689657
19.439271904236804
19.43937516201244
19.439477459388094
19.43957768363199
19.439674736913933
19.439767547528906
19.439855082005217
19.439936356104397
19.44001044771461
19.440076508154213
19.44013377395798
19.440181577883024
19.44021935875113
19.440246670316682
19.440263188456917
19.44026871648156
19.441808438996592
19.441813791697843
19.44182979104638
19.441856261695712
19.441892914091078
19.44193934790817
19.441995057799186
19.442059438852144
19.442131794836694
19.44221134509186
19.44229723424803
19.442388540882227
19.44248428634554
19.442583445189666
19.442684954914988
19.442787725411904
19.442890649586822
19.442992613698603
19.443092508053176
19.443189238041388
19.44328173537771
19.44336897019779
19.443449962024914
19.44352379259492
19.443589617069712
19.443646675707654
19.443694304738507
19.443731946069427
19.443759156019517
19.443775612392244
19.44378111969265
