# vtk DataFile Version 2.0
Unstructured Grid Example
ASCII
DATASET UNSTRUCTURED_GRID

POINTS 961 float
0.400000004 0.01999999956 0
0.3866666556 0.01999999956 0
0.3733333348 0.01999999956 0
0.3600000144 0.01999999956 0
0.346666664 0.01999999956 0
0.3333333432 0.01999999956 0
0.3199999928 0.01999999956 0
0.3066666724 0.01999999956 0
0.293333322 0.01999999956 0
0.2800000012 0.01999999956 0
0.2666666804 0.01999999956 0
0.25333333 0.01999999956 0
0.2399999948 0.01999999956 0
0.226666674 0.01999999956 0
0.2133333384 0.01999999956 0
0.2000000028 0.01999999956 0
0.1866666676 0.01999999956 0
0.173333332 0.01999999956 0
0.1599999964 0.01999999956 0
0.1466666608 0.01999999956 0
0.1333333404 0.01999999956 0
0.1199999972 0.01999999956 0
0.1066666692 0.01999999956 0
0.0933333336 0.01999999956 0
0.0799999984 0.01999999956 0
0.06666667 0.01999999956 0
0.0533333348 0.01999999956 0
0.03999999912 0.01999999956 0
0.02666666732 0.01999999956 0
0.01333333364 0.01999999956 0
0.0 0.01999999956 0
0.400000004 0.00666666684 0
0.3866666556 0.00666666684 0
0.3733333348 0.00666666684 0
0.3600000144 0.00666666684 0
0.346666664 0.00666666684 0
0.3333333432 0.00666666684 0
0.3199999928 0.00666666684 0
0.3066666724 0.00666666684 0
0.293333322 0.00666666684 0
0.2800000012 0.00666666684 0
0.2666666804 0.00666666684 0
0.25333333 0.00666666684 0
0.2399999948 0.00666666684 0
0.226666674 0.00666666684 0
0.2133333384 0.00666666684 0
0.2000000028 0.00666666684 0
0.1866666676 0.00666666684 0
0.173333332 0.00666666684 0
0.1599999964 0.00666666684 0
0.1466666608 0.00666666684 0
0.1333333404 0.00666666684 0
0.1199999972 0.00666666684 0
0.1066666692 0.00666666684 0
0.0933333336 0.00666666684 0
0.0799999984 0.00666666684 0
0.06666667 0.00666666684 0
0.0533333348 0.00666666684 0
0.03999999912 0.00666666684 0
0.02666666732 0.00666666684 0
0.01333333364 0.00666666684 0
0.0 0.00666666684 0
0.400000004 -0.00666666684 0
0.3866666556 -0.00666666684 0
0.3733333348 -0.00666666684 0
0.3600000144 -0.00666666684 0
0.346666664 -0.00666666684 0
0.3333333432 -0.00666666684 0
0.3199999928 -0.00666666684 0
0.3066666724 -0.00666666684 0
0.293333322 -0.00666666684 0
0.2800000012 -0.00666666684 0
0.2666666804 -0.00666666684 0
0.25333333 -0.00666666684 0
0.2399999948 -0.00666666684 0
0.226666674 -0.00666666684 0
0.2133333384 -0.00666666684 0
0.2000000028 -0.00666666684 0
0.1866666676 -0.00666666684 0
0.173333332 -0.00666666684 0
0.1599999964 -0.00666666684 0
0.1466666608 -0.00666666684 0
0.1333333404 -0.00666666684 0
0.1199999972 -0.00666666684 0
0.1066666692 -0.00666666684 0
0.0933333336 -0.00666666684 0
0.0799999984 -0.00666666684 0
0.06666667 -0.00666666684 0
0.0533333348 -0.00666666684 0
0.03999999912 -0.00666666684 0
0.02666666732 -0.00666666684 0
0.01333333364 -0.00666666684 0
0.0 -0.00666666684 0
0.400000004 -0.01999999956 0
0.3866666556 -0.01999999956 0
0.3733333348 -0.01999999956 0
0.3600000144 -0.01999999956 0
0.346666664 -0.01999999956 0
0.3333333432 -0.01999999956 0
0.3199999928 -0.01999999956 0
0.3066666724 -0.01999999956 0
0.293333322 -0.01999999956 0
0.2800000012 -0.01999999956 0
0.2666666804 -0.01999999956 0
0.25333333 -0.01999999956 0
0.2399999948 -0.01999999956 0
0.226666674 -0.01999999956 0
0.2133333384 -0.01999999956 0
0.2000000028 -0.01999999956 0
0.1866666676 -0.01999999956 0
0.173333332 -0.01999999956 0
0.1599999964 -0.01999999956 0
0.1466666608 -0.01999999956 0
0.1333333404 -0.01999999956 0
0.1199999972 -0.01999999956 0
0.1066666692 -0.01999999956 0
0.0933333336 -0.01999999956 0
0.0799999984 -0.01999999956 0
0.06666667 -0.01999999956 0
0.0533333348 -0.01999999956 0
0.03999999912 -0.01999999956 0
0.02666666732 -0.01999999956 0
0.01333333364 -0.01999999956 0
0.0 -0.01999999956 0
0.400000004 -0.03333333508 0
0.3866666556 -0.03333333508 0
0.3733333348 -0.03333333508 0
0.3600000144 -0.03333333508 0
0.346666664 -0.03333333508 0
0.3333333432 -0.03333333508 0
0.3199999928 -0.03333333508 0
0.3066666724 -0.03333333508 0
0.293333322 -0.03333333508 0
0.2800000012 -0.03333333508 0
0.2666666804 -0.03333333508 0
0.25333333 -0.03333333508 0
0.2399999948 -0.03333333508 0
0.226666674 -0.03333333508 0
0.2133333384 -0.03333333508 0
0.2000000028 -0.03333333508 0
0.1866666676 -0.03333333508 0
0.173333332 -0.03333333508 0
0.1599999964 -0.03333333508 0
0.1466666608 -0.03333333508 0
0.1333333404 -0.03333333508 0
0.1199999972 -0.03333333508 0
0.1066666692 -0.03333333508 0
0.0933333336 -0.03333333508 0
0.0799999984 -0.03333333508 0
0.06666667 -0.03333333508 0
0.0533333348 -0.03333333508 0
0.03999999912 -0.03333333508 0
0.02666666732 -0.03333333508 0
0.01333333364 -0.03333333508 0
0.0 -0.03333333508 0
0.400000004 -0.0466666668 0
0.3866666556 -0.0466666668 0
0.3733333348 -0.0466666668 0
0.3600000144 -0.0466666668 0
0.346666664 -0.0466666668 0
0.3333333432 -0.0466666668 0
0.3199999928 -0.0466666668 0
0.3066666724 -0.0466666668 0
0.293333322 -0.0466666668 0
0.2800000012 -0.0466666668 0
0.2666666804 -0.0466666668 0
0.25333333 -0.0466666668 0
0.2399999948 -0.0466666668 0
0.226666674 -0.0466666668 0
0.2133333384 -0.0466666668 0
0.2000000028 -0.0466666668 0
0.1866666676 -0.0466666668 0
0.173333332 -0.0466666668 0
0.1599999964 -0.0466666668 0
0.1466666608 -0.0466666668 0
0.1333333404 -0.0466666668 0
0.1199999972 -0.0466666668 0
0.1066666692 -0.0466666668 0
0.0933333336 -0.0466666668 0
0.0799999984 -0.0466666668 0
0.06666667 -0.0466666668 0
0.0533333348 -0.0466666668 0
0.03999999912 -0.0466666668 0
0.02666666732 -0.0466666668 0
0.01333333364 -0.0466666668 0
0.0 -0.0466666668 0
0.400000004 -0.0599999988 0
0.3866666556 -0.0599999988 0
0.3733333348 -0.0599999988 0
0.3600000144 -0.0599999988 0
0.346666664 -0.0599999988 0
0.3333333432 -0.0599999988 0
0.3199999928 -0.0599999988 0
0.3066666724 -0.0599999988 0
0.293333322 -0.0599999988 0
0.2800000012 -0.0599999988 0
0.2666666804 -0.0599999988 0
0.25333333 -0.0599999988 0
0.2399999948 -0.0599999988 0
0.226666674 -0.0599999988 0
0.2133333384 -0.0599999988 0
0.2000000028 -0.0599999988 0
0.1866666676 -0.0599999988 0
0.173333332 -0.0599999988 0
0.1599999964 -0.0599999988 0
0.1466666608 -0.0599999988 0
0.1333333404 -0.0599999988 0
0.1199999972 -0.0599999988 0
0.1066666692 -0.0599999988 0
0.0933333336 -0.0599999988 0
0.0799999984 -0.0599999988 0
0.06666667 -0.0599999988 0
0.0533333348 -0.0599999988 0
0.03999999912 -0.0599999988 0
0.02666666732 -0.0599999988 0
0.01333333364 -0.0599999988 0
0.0 -0.0599999988 0
0.400000004 -0.0733333304 0
0.3866666556 -0.0733333304 0
0.3733333348 -0.0733333304 0
0.3600000144 -0.0733333304 0
0.346666664 -0.0733333304 0
0.3333333432 -0.0733333304 0
0.3199999928 -0.0733333304 0
0.3066666724 -0.0733333304 0
0.293333322 -0.0733333304 0
0.2800000012 -0.0733333304 0
0.2666666804 -0.0733333304 0
0.25333333 -0.0733333304 0
0.2399999948 -0.0733333304 0
0.226666674 -0.0733333304 0
0.2133333384 -0.0733333304 0
0.2000000028 -0.0733333304 0
0.1866666676 -0.0733333304 0
0.173333332 -0.0733333304 0
0.1599999964 -0.0733333304 0
0.1466666608 -0.0733333304 0
0.1333333404 -0.0733333304 0
0.1199999972 -0.0733333304 0
0.1066666692 -0.0733333304 0
0.0933333336 -0.0733333304 0
0.0799999984 -0.0733333304 0
0.06666667 -0.0733333304 0
0.0533333348 -0.0733333304 0
0.03999999912 -0.0733333304 0
0.02666666732 -0.0733333304 0
0.01333333364 -0.0733333304 0
0.0 -0.0733333304 0
0.400000004 -0.086666666 0
0.3866666556 -0.086666666 0
0.3733333348 -0.086666666 0
0.3600000144 -0.086666666 0
0.346666664 -0.086666666 0
0.3333333432 -0.086666666 0
0.3199999928 -0.086666666 0
0.3066666724 -0.086666666 0
0.293333322 -0.086666666 0
0.2800000012 -0.086666666 0
0.2666666804 -0.086666666 0
0.25333333 -0.086666666 0
0.2399999948 -0.086666666 0
0.226666674 -0.086666666 0
0.2133333384 -0.086666666 0
0.2000000028 -0.086666666 0
0.1866666676 -0.086666666 0
0.173333332 -0.086666666 0
0.1599999964 -0.086666666 0
0.1466666608 -0.086666666 0
0.1333333404 -0.086666666 0
0.1199999972 -0.086666666 0
0.1066666692 -0.086666666 0
0.0933333336 -0.086666666 0
0.0799999984 -0.086666666 0
0.06666667 -0.086666666 0
0.0533333348 -0.086666666 0
0.03999999912 -0.086666666 0
0.02666666732 -0.086666666 0
0.01333333364 -0.086666666 0
0.0 -0.086666666 0
0.400000004 -0.1000000016 0
0.3866666556 -0.1000000016 0
0.3733333348 -0.1000000016 0
0.3600000144 -0.1000000016 0
0.346666664 -0.1000000016 0
0.3333333432 -0.1000000016 0
0.3199999928 -0.1000000016 0
0.3066666724 -0.1000000016 0
0.293333322 -0.1000000016 0
0.2800000012 -0.1000000016 0
0.2666666804 -0.1000000016 0
0.25333333 -0.1000000016 0
0.2399999948 -0.1000000016 0
0.226666674 -0.1000000016 0
0.2133333384 -0.1000000016 0
0.2000000028 -0.1000000016 0
0.1866666676 -0.1000000016 0
0.173333332 -0.1000000016 0
0.1599999964 -0.1000000016 0
0.1466666608 -0.1000000016 0
0.1333333404 -0.1000000016 0
0.1199999972 -0.1000000016 0
0.1066666692 -0.1000000016 0
0.0933333336 -0.1000000016 0
0.0799999984 -0.1000000016 0
0.06666667 -0.1000000016 0
0.0533333348 -0.1000000016 0
0.03999999912 -0.1000000016 0
0.02666666732 -0.1000000016 0
0.01333333364 -0.1000000016 0
0.0 -0.1000000016 0
0.400000004 -0.1133333372 0
0.3866666556 -0.1133333372 0
0.3733333348 -0.1133333372 0
0.3600000144 -0.1133333372 0
0.346666664 -0.1133333372 0
0.3333333432 -0.1133333372 0
0.3199999928 -0.1133333372 0
0.3066666724 -0.1133333372 0
0.293333322 -0.1133333372 0
0.2800000012 -0.1133333372 0
0.2666666804 -0.1133333372 0
0.25333333 -0.1133333372 0
0.2399999948 -0.1133333372 0
0.226666674 -0.1133333372 0
0.2133333384 -0.1133333372 0
0.2000000028 -0.1133333372 0
0.1866666676 -0.1133333372 0
0.173333332 -0.1133333372 0
0.1599999964 -0.1133333372 0
0.1466666608 -0.1133333372 0
0.1333333404 -0.1133333372 0
0.1199999972 -0.1133333372 0
0.1066666692 -0.1133333372 0
0.0933333336 -0.1133333372 0
0.0799999984 -0.1133333372 0
0.06666667 -0.1133333372 0
0.0533333348 -0.1133333372 0
0.03999999912 -0.1133333372 0
0.02666666732 -0.1133333372 0
0.01333333364 -0.1133333372 0
0.0 -0.1133333372 0
0.400000004 -0.1266666652 0
0.3866666556 -0.1266666652 0
0.3733333348 -0.1266666652 0
[...]
POINT_DATA 961
SCALARS Temp float 1
LOOKUP_TABLE default
0.7180924014010989
0.7467732341974874
0.7673556312303771
0.7823210648302101
0.7932863756751771
0.8013602673508752
0.8073320675342249
0.8117699037946623
0.8150872821879984
0.8175871832631696
0.819494240853164
0.8209770549358568
0.8221644711689491
0.8231582506781953
0.8240425234825053
0.8248912877374115
0.825775276925552
0.8267682725829224
0.8279537361685059
0.8294323960503464
0.8313314873323245
0.8338169165449374
0.8371087679972777
0.8415033356626623
0.8474027014270359
0.8553567118937399
0.8661227830621817
0.8807533933267704
0.9007293527945163
0.9281997460823732
0.9665735627728578
0.75793293559842
0.7860565166039777
0.8064178434591436
0.8213013583723063
0.8322290154083087
0.8402874495089919
0.8462545922004431
0.8506931472294511
0.8540137865107029
0.8565180159041406
0.8584297121026158
0.8599171189102641
0.8611089559652522
0.8621069816864525
0.8629953919187735
0.8638482909839228
0.8647365332427354
0.8657340204709679
0.8669243155921801
0.8684082030378479
0.8703128863872496
0.8728040723205559
0.8761013548949169
0.8805000014335426
0.8864001059970508
0.8943477283809197
0.9050930080941092
0.9196733825047476
0.9395383457874321
0.9667286618801914
1.0042002158661987
2.623229644081035
2.627407838875273
2.6390525833279286
2.649792527527941
2.658673581333197
2.665739584354233
2.671272051410941
2.675574889577388
2.6789176668982595
2.6815241156727536
2.6835752445418413
2.685216589389438
2.6865660717142577
2.6877213484810087
2.6887663530734516
2.6897771438845446
2.690827343658711
2.691993474041842
2.6933604735830703
2.6950277420920052
2.6971160488648493
2.699775533518781
2.7031949374448168
2.7076117030422147
2.7133213639014984
2.720681411435492
2.73009579403345
2.741938812807069
2.756268135989712
2.771800934624094
2.777377375242078
4.465280041059366
4.467560139133534
4.473156366880462
4.480149039365908
4.486779108556826
4.492527179053893
4.4973088538002015
4.501204582022445
4.50434741597514
4.506877580030812
4.50892514969188
4.510604876050455
4.512016405306855
4.513246819622082
4.514374079993292
4.5154708018018415
4.516608163915222
4.517859893801274
4.519306360652205
4.52103878740469
4.523163491946407
4.525805862023923
4.52911319349993
4.533254620170027
4.538413911157055
4.544766026928116
4.552416356694329
4.561250555825545
4.570573245077731
4.578036358862547
4.581077073826949
6.301890017311516
6.303103437146439
6.306382799136534
6.310822938379047
6.315551302843523
6.319994066374149
6.323915047381463
6.327258476998061
6.330056494890309
6.332379025197556
6.3343084922217265
6.335927793126512
6.337315387454636
6.338544167539164
6.339682285134549
6.340795003182286
6.341947076167772
6.343205352588273
6.344641401513788
6.346333931356847
6.348370625442226
6.350848727612058
6.353873053190231
6.35754911016493
6.361966768973177
6.367166217977905
6.373070946721
6.379363954942503
6.385278119986448
6.389647984124422
6.391265209649667
8.135217204921327
8.135956239726214
8.138001127840505
8.140928826863648
8.144249718266378
8.147573228853105
8.150660856261657
8.153404982942526
8.155780736071515
8.157809654772024
8.159536675167402
8.16101675827452
8.162307793142674
8.163467366828554
8.164551811230494
8.165616574868757
8.166717321501892
8.1679113236798
8.169258818843954
8.17082395789227
8.172674832596616
8.174881800435983
8.177512777028188
8.180623492667447
8.184239404519204
8.188324725197747
8.192733831982768
8.197146828421639
8.201041292466284
8.203762984319567
8.204746867738496
9.966334472663469
9.966805125871447
9.968132007101543
9.970093472572671
9.972412452524717
9.974835884053903
9.977180237692094
9.979337934788164
9.981262515003971
9.982948676823874
9.984416056665427
9.985697996438246
9.986834571184628
9.987868709227644
9.988844354414736
9.98980591778363
9.990798471146341
9.991868239087813
9.993063019367654
9.994432127075667
9.996025345696816
9.997890182337649
10.000066382948761
10.002576414837067
10.005410281251866
10.008503668614587
10.011711234203055
10.01478665353251
10.017391189365169
10.019154366605585
10.01977998231542
11.79571477547907
11.796017885129677
11.796881878523456
11.798185791545974
11.799769852475201
11.801476174571503
11.803177372934568
11.804787733716442
11.806260855281407
11.807580897241225
11.80875300637721
11.80979544168518
11.81073401222457
11.811598570957655
11.812421036380094
11.813234456014943
11.814072696459593
11.814970384764742
11.815962770167367
11.817085147950579
11.81837141641073
11.819851242667523
11.821545163987103
11.82345701242444
11.82556326035937
11.827800090842809
11.830051661724902
11.832146838551118
11.833874092798062
11.8350196265364
11.835421673904074
13.623593019731727
13.623780055253635
13.624317092171442
13.62513875160704
13.626155699022014
13.627275091112521
13.62841694188043
13.629522713283553
13.630556681375591
13.631502714672685
13.632359400726433
13.633135327387217
13.633845364632453
13.6345080940444
13.635144199049218
13.635775558999349
13.636424783919235
13.637114925348776
13.637869120316132
13.638709907162141
13.63965791663118
13.640729611498058
13.641933717025266
13.643266163386574
13.6447036933981
13.64619725688453
13.647667673298509
13.649007373426484
13.650091855797879
13.65080148155282
13.651048756732644
15.450083670413964
15.450181425658133
15.4504636680819
15.450900133408064
15.451448570998876
15.452063654633143
15.452704648557784
15.453340053548587
15.453949083211057
15.454520806421515
15.455052173832819
15.455545821699323
15.456008181237847
15.456448073237897
15.45687575533741
15.457302322146099
15.457739334394812
15.458198538168993
15.45869154390111
15.459229325269039
15.45982138613495
15.460474444077741
15.461190488721991
15.46196421583344
15.462780050121966
15.463609459212712
15.464409791712129
15.465126203795299
15.465697855734632
15.466068117315697
15.4661964568318
17.27524159571124
17.275262180873153
17.275322673373243
17.27541951644926
17.275547480981363
17.27570048852095
17.275872423994613
17.27605776497024
17.27625196590892
17.27645159854863
17.276654322916563
17.276858750919942
17.277064265871623
17.27727083849205
17.27747885259264
17.277688946165306
17.277901866788557
17.278118329575083
17.278338868262907
17.278563668705445
17.278792376064168
17.279023874757122
17.279256044410005
17.279485525822608
17.27970753980693
17.27991584465135
17.280102927041778
17.28026050893307
17.28038039006628
17.280455528732652
17.280481140853936
17.37707439834299
17.377091386491923
17.377141495075254
17.37722229189621
17.377330136257882
17.37746068207423
17.37760940244654
17.377772029482827
17.377944862256577
17.378124922513635
17.37830999193429
17.37849855871359
17.37868971351878
17.378883025213508
17.37907840859025
17.379275992848363
17.379475994615053
17.379678589586117
17.379883779198963
17.380091247748997
17.380300207631937
17.380509237550704
17.380716121108783
17.380917716940708
17.381109890504817
17.381287562309247
17.381444920309985
17.381575826859933
17.38167440878363
17.38173575472493
17.381756587506885
17.478801755186566
17.478816051774576
17.478858343299695
17.478926917233597
17.479019172642523
17.479131936963224
17.479261810734396
17.479405473932722
17.479559921713495
17.47972260531623
17.47989149332291
17.48006506246944
17.480242242141955
17.480422333644626
17.480604913277652
17.480789728039444
17.480976589975036
17.481165266928727
17.481355369992734
17.481546237125226
17.48173681433962
17.481925541651158
17.48211025140548
17.48228810435707
17.48245558194058
17.482608568234497
17.482742543324367
17.482852895375565
17.482935332892456
17.482986342963766
17.483003615167735
17.58042876741106
17.580441000259974
17.580477268815507
17.58053633472866
17.580616294427184
17.580714783804137
17.580829208817395
17.580956959502867
17.581095586640515
17.58124291891039
17.581397127644607
17.58155673902077
17.581720607865762
17.5818878671679
17.582057859019493
17.58223005464425
17.582403970130965
17.582579077657297
17.582754714735824
17.582929993275176
17.58310371164494
17.583274277269833
17.583439645932405
17.58359729734038
17.583744256742822
17.58387718271031
17.58399252921998
17.584086780026464
17.58415673793472
17.584199831448633
17.58421438926919
17.681959264546332
17.681969881938556
17.682001416943248
17.682052951435555
17.682123059521214
17.68220994283984
17.682311587452528
17.682425914286377
17.682550910350404
17.682684722093008
17.682825714774143
17.682972493392494
17.683123893424806
17.683278950702633
17.68343685347776
17.68359688285722
17.68375834796454
17.683920516527763
17.684082544467465
17.6842434073465
17.684401837428513
17.684556273221673
17.68470482584933
17.684845277004936
17.68497511252214
17.685091603662407
17.685191937587557
17.685273391887147
17.685333539122496
17.685370455643124
17.685382903611284
17.78339614302252
17.783405473783024
17.783433226253244
17.78347870315524
17.783540811855683
17.783618155621344
17.78370914208226
17.78381208982096
17.78392532563839
17.784047257290425
17.784176424473088
17.784311521923044
17.78445139950896
17.78459504554907
17.78474155450028
17.78489008382379
17.785039805737487
17.785189854802745
17.785339275185194
17.785486970723163
17.78563166142226
17.785771852232862
17.785905816779934
17.78603160718084
17.78614709043189
17.786250018821264
17.7863381328075
17.786409290776437
17.78646161505263
17.786493636473573
17.786504417696133
17.881490901239374
17.88149918944825
17.88152386838801
17.88156439603337
17.881619916288322
17.881689321643663
17.881771329305447
17.88186455736618
17.881967597069384
17.882079068831892
17.882197664583863
17.882322169923818
17.882451469085062
17.882584537009492
17.88272041841318
17.882858197510107
17.88299696334428
17.883135771568252
17.883273606328626
17.883409345217537
17.88354173045341
17.883669351084734
17.883790637559756
17.883903877184196
17.884007248897408
17.884098882190656
17.88417693743404
17.884239702584527
17.884285698499696
17.884313780609304
17.884323224067515
17.972971452336704
17.97297888219548
17.973001024655055
17.973037448775273
17.973087469093173
17.97315018934148
17.97322455665759
17.973309416512773
17.97340356668325
17.973505800201075
17.973614939937914
17.973729858550858
17.973849485769133
17.973972806118653
17.974098846184084
17.974226654186275
17.974355276086648
17.974483728789274
17.97461097370568
17.974735893255396
17.974857272902483
17.974973792562597
17.97508402775082
17.975186467143924
17.97527954389411
17.975361684046412
17.97543136905519
17.97548720822433
17.97552801549226
17.975552881993078
17.97556123589809
18.05780574405943
18.057812459720214
18.057832487505177
18.057865477165517
18.057910868062837
18.05796792013404
18.058035753047385
18.058113386202443
18.058199779355203
18.05829386556573
18.058394579283206
18.058500873769315
18.058611729301454
18.058726154513984
18.058843179518085
18.058961842905006
18.059081176187988
18.059200185943098
18.05931783644511
18.059433034920133
18.059544621460574
18.059651366634448
18.059751976482715
18.059845110278772
18.059929407874435
18.060003529170988
18.060066202844677
18.06011628099639
18.06015279577735
18.060175011920123
18.060182469487845
18.135964020815372
18.13597013754529
18.135988389033905
18.136018484451494
18.136059955650893
18.13611217942084
18.13617440618691
18.136245789454623
18.136325416705205
18.136412334790712
18.136505572781143
18.136604156998555
18.136707119401144
18.13681350121773
18.136922350223852
18.13703271326413
18.13714362701894
18.137254106982493
18.137363136987563
18.13746966096045
18.137572578461857
18.137670746401113
18.13776298616807
18.137848100638024
18.137924897698547
18.13799222238775
18.138048995062224
18.13809425299589
18.138127192647314
18.138147208235235
18.138153922763465
18.20741877603271
18.207424387959342
18.207441140275197
18.207468786443993
18.207506927650734
18.207555029032463
18.207612441046177
18.207678421406477
18.207752158884915
18.207832793052305
18.20791943300433
18.20801117031698
18.208107087253957
18.208206261835173
18.20830776804064
18.2084106723842
18.20851402939652
18.2086168757344
18.20871822483829
18.208817063435088
18.208912351034265
18.209003024301055
18.2090880052659
18.20916621716693
18.209236604585648
18.209298159713214
18.209349952489774
18.2093911626108
18.209421111492553
18.20943929101604
18.209445386400194
18.272144732051387
18.27214991762864
18.272165402347817
18.27219097304387
18.27222628340178
18.27227086598213
18.272324148404024
18.272385469921357
18.27245410004144
18.27252925406128
18.27261010859993
18.27269581282963
18.272785496355308
18.272878275160966
18.27297325385887
18.27306952520263
18.273166169033473
18.27326225017658
18.273356816858993
18.273448900623574
18.273537518561362
18.273621679359874
18.273700391953902
18.27377268009728
18.27383759961993
18.273894260061994
18.273941848731234
18.27397965564295
18.2740070980447
18.27402374216829
18.274029320369102
18.330119224919297
18.330124050845903
18.330138465295644
18.330162280462083
18.33019519010843
18.330236778633708
18.330286533565275
18.330343858291773
18.330408086896423
18.33047849657704
18.330554320731213
18.330634758798112
18.33071898376854
18.330806148650332
18.330895390131914
18.330985830203645
18.331076577610222
18.33116672849967
18.331255367552984
18.331341570310425
18.331424407263817
18.33150295091953
18.331576284522306
18.331643515403808
18.331703789865106
18.331756311194166
18.331800359128625
18.331835309578846
18.331860653749953
18.33187601488185
18.33188116131743
18.38132148570027
18.381326009781557
18.3813395253174
18.38136186388121
18.381392749992916
18.381431808091182
18.381478572387277
18.381532496837252
18.381592967208906
18.381659311202835
18.381730809677162
18.381806705392826
18.38188621016708
18.381968511628685
18.382052777847523
18.382138160449554
18.382223797857243
18.38230881790939
18.382392340916553
18.382473483665677
18.38255136475154
18.382625112219106
18.382693872160644
18.382756820964055
18.382813178275885
18.382862222218783
18.382903305392446
18.38293587074204
18.38295946674252
18.382973760526
18.382978548038807
18.425733614677004
18.425737887943516
18.42575065609423
18.425771765535575
18.425800964416265
18.42583790811367
18.42588216719803
18.42593323542175
18.42599053976852
18.426053448886396
18.42612128291005
18.426193321354244
18.42626880994945
18.42634696754289
18.42642699137803
18.426508061253855
18.426589344021583
18.426669997594555
18.42674917534945
18.42682603127836
18.426899726126315
18.426969435334115
18.427034357414108
18.427093725252142
18.427146817545673
18.427192971872156
18.427231598092938
18.427262191377054
18.427284344512955
18.427297758425325
18.427302250242224
18.46333968357632
18.463343751891504
18.463355909035627
18.46337601271335
18.46340382913032
18.463439037427346
18.463481236294662
18.463529950543002
18.463584639689028
18.463644705158927
18.463709499064578
18.463778331446278
18.46385047683907
18.463925181232863
18.464001667780934
18.46407914167799
18.464156795524815
18.464233814302254
18.464309380696367
18.464382681019806
18.46445291185888
18.46451928814537
18.464581051281872
18.464637479659167
18.464687898904558
18.464731693320495
18.464768317355645
18.464797306541247
18.464818287714877
18.464830987654626
18.464835239648085
18.494126478101627
18.49413038340211
18.494142054385236
18.494161357233942
18.49418807174184
18.494221895009144
18.494262447102535
18.494309276623223
18.49436186824446
18.494419649032398
18.494481996455534
18.49454824514097
18.494617693223184
18.49468960931405
18.494763238488073
18.494837807645435
18.494912531463736
18.49498661802679
18.49505927477074
18.495129714908945
18.49519716439022
18.495260870001836
18.49532010725549
18.495374190278362
18.495422481156012
18.495464400157964
18.49549943579303
18.495527154234153
18.495547208042204
18.495559343456666
18.49556340590044
18.518083134612336
18.518086915894585
18.518098216915188
18.51811691001594
18.51814278488372
18.518175551740747
18.51821484634632
18.518260234873857
18.518311220718246
18.518367250201102
18.51842772003583
18.518491983733057
18.51855935778265
18.518629128610506
18.51870055873644
18.51877289245462
18.518845362170754
18.518917194461938
18.518987616427463
18.519055862432825
18.51912118125007
18.5191828441434
18.51924015255196
18.519292447504974
18.51933911830188
18.519379611865467
18.51941344179175
18.519440196711233
18.519459547964146
18.519471255956713
18.51947517492877
18.535201058070633
18.535204752199803
18.5352157931805
18.53523405753649
18.535259341683894
18.53529136479414
18.535329773367188
18.535374145659212
18.535423998010707
18.535478790147906
18.53553793228502
18.535600791293685
18.5356666967673
18.535734947958158
18.535804820037303
18.535875569971594
18.535946443099917
18.536016679461422
18.536085520395655
18.536152215478175
18.53621602976084
18.536276251825115
18.536332201311524
18.536383238001893
18.53642877004768
18.536468262736275
18.536501246870998
18.53652732642889
18.536546185545568
18.536557594258813
18.536561412794207
18.54547426058677
18.54547790298182
18.54548878958329
18.545506799341542
18.545531732581935
18.54556331368404
18.545601195413653
18.545644963097214
18.545694140678975
18.545748195793262
18.54580654665951
18.54586856811536
18.545933597611374
18.546000942132373
18.546069884510352
18.546139689408076
18.546209610024643
18.546278894569713
18.546346792997905
18.546412564045536
18.546475482519426
18.54653484732345
18.54658998889305
18.546640278080652
18.546685134121564
18.546724033062038
18.54675651575595
18.546782195121924
18.546800762736154
18.54681199422905
18.546815753298524
18.548899055482003
18.548902680723955
18.548913516135908
18.548931441463736
18.54895625831513
18.548987692779583
18.54902539968253
18.549068966678167
18.549117920218627
18.54917173055236
18.549229818551623
18.549291561700965
18.549356300068933
18.54942334322358
18.5494919765617
18.549561467325983
18.549631071351577
18.549700039586384
18.549767624867883
18.549833088991118
18.54989571001207
18.549954790263875
18.55000966375949
18.55005970501178
18.550104336913407
18.550143039054543
18.55017535559465
18.550200902389612
18.550219373457374
18.55023054626234
18.550234285640574
