# vtk DataFile Version 2.0
Unstructured Grid Example
ASCII
DATASET UNSTRUCTURED_GRID

POINTS 961 float
0.400000004 0.01999999956 0
0.3866666556 0.01999999956 0
0.3733333348 0.01999999956 0
0.3600000144 0.01999999956 0
0.346666664 0.01999999956 0
0.3333333432 0.01999999956 0
0.3199999928 0.01999999956 0
0.3066666724 0.01999999956 0
0.293333322 0.01999999956 0
0.2800000012 0.01999999956 0
0.2666666804 0.01999999956 0
0.25333333 0.01999999956 0
0.2399999948 0.01999999956 0
0.226666674 0.01999999956 0
0.2133333384 0.01999999956 0
0.2000000028 0.01999999956 0
0.1866666676 0.01999999956 0
0.173333332 0.01999999956 0
0.1599999964 0.01999999956 0
0.1466666608 0.01999999956 0
0.1333333404 0.01999999956 0
0.1199999972 0.01999999956 0
0.1066666692 0.01999999956 0
0.0933333336 0.01999999956 0
0.0799999984 0.01999999956 0
0.06666667 0.01999999956 0
0.0533333348 0.01999999956 0
0.03999999912 0.01999999956 0
0.02666666732 0.01999999956 0
0.01333333364 0.01999999956 0
0.0 0.01999999956 0
0.400000004 0.00666666684 0
0.3866666556 0.00666666684 0
0.3733333348 0.00666666684 0
0.3600000144 0.00666666684 0
0.346666664 0.00666666684 0
0.3333333432 0.00666666684 0
0.3199999928 0.00666666684 0
0.3066666724 0.00666666684 0
0.293333322 0.00666666684 0
0.2800000012 0.00666666684 0
0.2666666804 0.00666666684 0
0.25333333 0.00666666684 0
0.2399999948 0.00666666684 0
0.226666674 0.00666666684 0
0.2133333384 0.00666666684 0
0.2000000028 0.00666666684 0
0.1866666676 0.00666666684 0
0.173333332 0.00666666684 0
0.1599999964 0.00666666684 0
0.1466666608 0.00666666684 0
0.1333333404 0.00666666684 0
0.1199999972 0.00666666684 0
0.1066666692 0.00666666684 0
0.0933333336 0.00666666684 0
0.0799999984 0.00666666684 0
0.06666667 0.00666666684 0
0.0533333348 0.00666666684 0
0.03999999912 0.00666666684 0
0.02666666732 0.00666666684 0
0.01333333364 0.00666666684 0
0.0 0.00666666684 0
0.400000004 -0.00666666684 0
0.3866666556 -0.00666666684 0
0.3733333348 -0.00666666684 0
0.3600000144 -0.00666666684 0
0.346666664 -0.00666666684 0
0.3333333432 -0.00666666684 0
0.3199999928 -0.00666666684 0
0.3066666724 -0.00666666684 0
0.293333322 -0.00666666684 0
0.2800000012 -0.00666666684 0
0.2666666804 -0.00666666684 0
0.25333333 -0.00666666684 0
0.2399999948 -0.00666666684 0
0.226666674 -0.00666666684 0
0.2133333384 -0.00666666684 0
0.2000000028 -0.00666666684 0
0.1866666676 -0.00666666684 0
0.173333332 -0.00666666684 0
0.1599999964 -0.00666666684 0
0.1466666608 -0.00666666684 0
0.1333333404 -0.00666666684 0
0.1199999972 -0.00666666684 0
0.1066666692 -0.00666666684 0
0.0933333336 -0.00666666684 0
0.0799999984 -0.00666666684 0
0.06666667 -0.00666666684 0
0.0533333348 -0.00666666684 0
0.03999999912 -0.00666666684 0
0.02666666732 -0.00666666684 0
0.01333333364 -0.00666666684 0
0.0 -0.00666666684 0
0.400000004 -0.01999999956 0
0.3866666556 -0.01999999956 0
0.3733333348 -0.01999999956 0
0.3600000144 -0.01999999956 0
0.346666664 -0.01999999956 0
0.3333333432 -0.01999999956 0
0.3199999928 -0.01999999956 0
0.3066666724 -0.01999999956 0
0.293333322 -0.01999999956 0
0.2800000012 -0.01999999956 0
0.2666666804 -0.01999999956 0
0.25333333 -0.01999999956 0
0.2399999948 -0.01999999956 0
0.226666674 -0.01999999956 0
0.2133333384 -0.01999999956 0
0.2000000028 -0.01999999956 0
0.1866666676 -0.01999999956 0
0.173333332 -0.01999999956 0
0.1599999964 -0.01999999956 0
0.1466666608 -0.01999999956 0
0.1333333404 -0.01999999956 0
0.1199999972 -0.01999999956 0
0.1066666692 -0.01999999956 0
0.0933333336 -0.01999999956 0
0.0799999984 -0.01999999956 0
0.06666667 -0.01999999956 0
0.0533333348 -0.01999999956 0
0.03999999912 -0.01999999956 0
0.02666666732 -0.01999999956 0
0.01333333364 -0.01999999956 0
0.0 -0.01999999956 0
0.400000004 -0.03333333508 0
0.3866666556 -0.03333333508 0
0.3733333348 -0.03333333508 0
0.3600000144 -0.03333333508 0
0.346666664 -0.03333333508 0
0.3333333432 -0.03333333508 0
0.3199999928 -0.03333333508 0
0.3066666724 -0.03333333508 0
0.293333322 -0.03333333508 0
0.2800000012 -0.03333333508 0
0.2666666804 -0.03333333508 0
0.25333333 -0.03333333508 0
0.2399999948 -0.03333333508 0
0.226666674 -0.03333333508 0
0.2133333384 -0.03333333508 0
0.2000000028 -0.03333333508 0
0.1866666676 -0.03333333508 0
0.173333332 -0.03333333508 0
0.1599999964 -0.03333333508 0
0.1466666608 -0.03333333508 0
0.1333333404 -0.03333333508 0
0.1199999972 -0.03333333508 0
0.1066666692 -0.03333333508 0
0.0933333336 -0.03333333508 0
0.0799999984 -0.03333333508 0
0.06666667 -0.03333333508 0
0.0533333348 -0.03333333508 0
0.03999999912 -0.03333333508 0
0.02666666732 -0.03333333508 0
0.01333333364 -0.03333333508 0
0.0 -0.03333333508 0
0.400000004 -0.0466666668 0
0.3866666556 -0.0466666668 0
0.3733333348 -0.0466666668 0
0.3600000144 -0.0466666668 0
0.346666664 -0.0466666668 0
0.3333333432 -0.0466666668 0
0.3199999928 -0.0466666668 0
0.3066666724 -0.0466666668 0
0.293333322 -0.0466666668 0
0.2800000012 -0.0466666668 0
0.2666666804 -0.0466666668 0
0.25333333 -0.0466666668 0
0.2399999948 -0.0466666668 0
0.226666674 -0.0466666668 0
0.2133333384 -0.0466666668 0
0.2000000028 -0.0466666668 0
0.1866666676 -0.0466666668 0
0.173333332 -0.0466666668 0
0.1599999964 -0.0466666668 0
0.1466666608 -0.0466666668 0
0.1333333404 -0.0466666668 0
0.1199999972 -0.0466666668 0
0.1066666692 -0.0466666668 0
0.0933333336 -0.0466666668 0
0.0799999984 -0.0466666668 0
0.06666667 -0.0466666668 0
0.0533333348 -0.0466666668 0
0.03999999912 -0.0466666668 0
0.02666666732 -0.0466666668 0
0.01333333364 -0.0466666668 0
0.0 -0.0466666668 0
0.400000004 -0.0599999988 0
0.3866666556 -0.0599999988 0
0.3733333348 -0.0599999988 0
0.3600000144 -0.0599999988 0
0.346666664 -0.0599999988 0
0.3333333432 -0.0599999988 0
0.3199999928 -0.0599999988 0
0.3066666724 -0.0599999988 0
0.293333322 -0.0599999988 0
0.2800000012 -0.0599999988 0
0.2666666804 -0.0599999988 0
0.25333333 -0.0599999988 0
0.2399999948 -0.0599999988 0
0.226666674 -0.0599999988 0
0.2133333384 -0.0599999988 0
0.2000000028 -0.0599999988 0
0.1866666676 -0.0599999988 0
0.173333332 -0.0599999988 0
0.1599999964 -0.0599999988 0
0.1466666608 -0.0599999988 0
0.1333333404 -0.0599999988 0
0.1199999972 -0.0599999988 0
0.1066666692 -0.0599999988 0
0.0933333336 -0.0599999988 0
0.0799999984 -0.0599999988 0
0.06666667 -0.0599999988 0
0.0533333348 -0.0599999988 0
0.03999999912 -0.0599999988 0
0.02666666732 -0.0599999988 0
0.01333333364 -0.0599999988 0
0.0 -0.0599999988 0
0.400000004 -0.0733333304 0
0.3866666556 -0.0733333304 0
0.3733333348 -0.0733333304 0
0.3600000144 -0.0733333304 0
0.346666664 -0.0733333304 0
0.3333333432 -0.0733333304 0
0.3199999928 -0.0733333304 0
0.3066666724 -0.0733333304 0
0.293333322 -0.0733333304 0
0.2800000012 -0.0733333304 0
0.2666666804 -0.0733333304 0
0.25333333 -0.0733333304 0
0.2399999948 -0.0733333304 0
0.226666674 -0.0733333304 0
0.2133333384 -0.0733333304 0
0.2000000028 -0.0733333304 0
0.1866666676 -0.0733333304 0
0.173333332 -0.0733333304 0
0.1599999964 -0.0733333304 0
0.1466666608 -0.0733333304 0
0.1333333404 -0.0733333304 0
0.1199999972 -0.0733333304 0
0.1066666692 -0.0733333304 0
0.0933333336 -0.0733333304 0
0.0799999984 -0.0733333304 0
0.06666667 -0.0733333304 0
0.0533333348 -0.0733333304 0
0.03999999912 -0.0733333304 0
0.02666666732 -0.0733333304 0
0.01333333364 -0.0733333304 0
0.0 -0.0733333304 0
0.400000004 -0.086666666 0
0.3866666556 -0.086666666 0
0.3733333348 -0.086666666 0
0.3600000144 -0.086666666 0
0.346666664 -0.086666666 0
0.3333333432 -0.086666666 0
0.3199999928 -0.086666666 0
0.3066666724 -0.086666666 0
0.293333322 -0.086666666 0
0.2800000012 -0.086666666 0
0.2666666804 -0.086666666 0
0.25333333 -0.086666666 0
0.2399999948 -0.086666666 0
0.226666674 -0.086666666 0
0.2133333384 -0.086666666 0
0.2000000028 -0.086666666 0
0.1866666676 -0.086666666 0
0.173333332 -0.086666666 0
0.1599999964 -0.086666666 0
0.1466666608 -0.086666666 0
0.1333333404 -0.086666666 0
0.1199999972 -0.086666666 0
0.1066666692 -0.086666666 0
0.0933333336 -0.086666666 0
0.0799999984 -0.086666666 0
0.06666667 -0.086666666 0
0.0533333348 -0.086666666 0
0.03999999912 -0.086666666 0
0.02666666732 -0.086666666 0
0.01333333364 -0.086666666 0
0.0 -0.086666666 0
0.400000004 -0.1000000016 0
0.3866666556 -0.1000000016 0
0.3733333348 -0.1000000016 0
0.3600000144 -0.1000000016 0
0.346666664 -0.1000000016 0
0.3333333432 -0.1000000016 0
0.3199999928 -0.1000000016 0
0.3066666724 -0.1000000016 0
0.293333322 -0.1000000016 0
0.2800000012 -0.1000000016 0
0.2666666804 -0.1000000016 0
0.25333333 -0.1000000016 0
0.2399999948 -0.1000000016 0
0.226666674 -0.1000000016 0
0.2133333384 -0.1000000016 0
0.2000000028 -0.1000000016 0
0.1866666676 -0.1000000016 0
0.173333332 -0.1000000016 0
0.1599999964 -0.1000000016 0
0.1466666608 -0.1000000016 0
0.1333333404 -0.1000000016 0
0.1199999972 -0.1000000016 0
0.1066666692 -0.1000000016 0
0.0933333336 -0.1000000016 0
0.0799999984 -0.1000000016 0
0.06666667 -0.1000000016 0
0.0533333348 -0.1000000016 0
0.03999999912 -0.1000000016 0
0.02666666732 -0.1000000016 0
0.01333333364 -0.1000000016 0
0.0 -0.1000000016 0
0.400000004 -0.1133333372 0
0.3866666556 -0.1133333372 0
0.3733333348 -0.1133333372 0
0.3600000144 -0.1133333372 0
0.346666664 -0.1133333372 0
0.3333333432 -0.1133333372 0
0.3199999928 -0.1133333372 0
0.3066666724 -0.1133333372 0
0.293333322 -0.1133333372 0
0.2800000012 -0.1133333372 0
0.2666666804 -0.1133333372 0
0.25333333 -0.1133333372 0
0.2399999948 -0.1133333372 0
0.226666674 -0.1133333372 0
0.2133333384 -0.1133333372 0
0.2000000028 -0.1133333372 0
0.1866666676 -0.1133333372 0
0.173333332 -0.1133333372 0
0.1599999964 -0.1133333372 0
0.1466666608 -0.1133333372 0
0.1333333404 -0.1133333372 0
0.1199999972 -0.1133333372 0
0.1066666692 -0.1133333372 0
0.0933333336 -0.1133333372 0
0.0799999984 -0.1133333372 0
0.06666667 -0.1133333372 0
0.0533333348 -0.1133333372 0
0.03999999912 -0.1133333372 0
0.02666666732 -0.1133333372 0
0.01333333364 -0.1133333372 0
0.0 -0.1133333372 0
0.400000004 -0.1266666652 0
0.3866666556 -0.1266666652 0
0.3733333348 -0.1266666652 0
[...]
POINT_DATA 961
SCALARS Temp float 1
LOOKUP_TABLE default
0.7064555668189552
0.7346716163004756
0.7549204578351179
0.7696433516378388
0.7804309377647621
0.7883739535582174
0.7942489359800662
0.7986148064844885
0.8018783707095867
0.8043376999096536
0.806213788284319
0.807672504253827
0.8088406061764912
0.8098182068122609
0.8106880735436822
0.8115230060818237
0.8123925923590855
0.8133694189417667
0.8145355954122107
0.8159902183871792
0.8178584615895517
0.8203035433814573
0.8235419818030189
0.8278652693877818
0.8336689720430066
0.8414940255501875
0.8520855710146799
0.8664790299083681
0.8861312135577559
0.9131563773101661
0.9509082624345966
0.7456504953662405
0.7733183234375356
0.7933496767250372
0.8079919784494749
0.8187425196972131
0.8266703268093323
0.8325407252914221
0.8369073006907247
0.8401740704568788
0.8426376550806316
0.8445183039215294
0.8459815350306998
0.8471539828238258
0.8481357574341591
0.849009691041047
0.8498486878396428
0.8507224547204589
0.8517036965798449
0.852874622858907
0.8543343853670514
0.8562081268501313
0.8586588690940207
0.8619026478656344
0.8662299457183209
0.8720343729791697
0.8798531400202546
0.8904242294090998
0.9047682653799671
0.924311250881739
0.9510608761207735
0.9879251216102932
2.5807205743002815
2.58483104729238
2.596287046654789
2.606852882525895
2.6155899269612592
2.6225413102995585
2.627983986700226
2.6322169398951716
2.635505371243033
2.638069389314902
2.640087071533876
2.6417015975570854
2.64302898028052
2.6441652965572455
2.6451931221251863
2.646187285390767
2.647220218592402
2.6483672058696053
2.649711811809591
2.6513518278185693
2.6534060683623655
2.6560222421078263
2.659386033744201
2.663731039521834
2.669348005240425
2.6765886302111976
2.685850317641174
2.6975013038219684
2.7115983237393877
2.7268793405945537
2.732365389771914
4.392921094646557
4.395164221267466
4.400669695292448
4.4075489415208375
4.414071418986377
4.4197261509712025
4.424430110254812
4.42826244490598
4.431354053926495
4.43384289253847
4.435856931852289
4.43750906716422
4.438897333880734
4.440107407149599
4.441215988896739
4.442294522143976
4.443413036710424
4.444644069695264
4.446066692219115
4.447770653134972
4.449860551454489
4.452459746791732
4.4557131515869415
4.4597871620245275
4.464862572135736
4.4711115097517835
4.478637658670978
4.487328529754446
4.496500015753828
4.503842107825952
4.506833519436704
6.199769424888417
6.200963150084532
6.2041892769437315
6.208557310031104
6.21320883896742
6.217579338971974
6.221436458823647
6.224725336956856
6.2274775962788915
6.22976203234499
6.231659738732645
6.233252274596285
6.234616833706167
6.235825133098814
6.2369442262473616
6.238038324753825
6.239171140058959
6.2404084436658165
6.241820651065419
6.243485201239866
6.245488362419997
6.247925808136494
6.250900660369217
6.254516722158465
6.258862412011594
6.263977271099812
6.269786032618725
6.27597683705978
6.28179499709741
6.286093945533752
6.287684929437209
8.003388257894812
8.004115276370412
8.006126906753867
8.009006963491952
8.01227376465582
8.015543069436934
8.018580244307977
8.021279420283781
8.023616132894537
8.025611578139635
8.027309970430688
8.028765387116595
8.030034786557453
8.031174830356212
8.03224094555468
8.033287690304844
8.03436983458816
8.03554373109505
8.036868649258395
8.0384077083578
8.040227904408933
8.042398462061755
8.044986203257988
8.048045961603782
8.051602787653717
8.055621479382925
8.059958778861786
8.06429997816303
8.06813112532277
8.070808586163132
8.071776483435277
9.804833102034788
9.805296078553923
9.806601308985005
9.808530742983779
9.810811803489589
9.81319553229983
9.815501378826944
9.817623513435407
9.819516235227756
9.82117433594031
9.82261714182687
9.823877463158253
9.824994734762454
9.826011198938792
9.826970097377936
9.827915131609561
9.828890653333548
9.829942148333894
9.831116649955938
9.832462684057347
9.834029236967599
9.835863055092357
9.838003248938714
9.84047192977845
9.843259270265847
9.846302005756751
9.849457154848777
9.852482390070618
9.855044467949893
9.856778920489733
9.857394347024886
11.604569273561136
11.604867411647085
11.605717225678674
11.606999713758821
11.60855769655106
11.610235850400734
11.611908860388704
11.613492408488188
11.614940852862476
11.616238618637286
11.617390778864168
11.618415307079838
11.619337605183619
11.620187053964864
11.620995066667353
11.62179416753441
11.622617686739837
11.623499702582615
11.62447490532623
11.625578030263034
11.626842437940294
11.628297325774174
11.62996290865668
11.631842966250542
11.633914361105264
11.636114318457045
11.638328880473175
11.640389692021547
11.642088657378943
11.643215446945677
11.64361091860534
13.402827897782416
13.403011832296631
13.403539957016573
13.404347954846084
13.40534794273912
13.406448587208324
13.407571205111772
13.408658215025271
13.409674481141732
13.410604143758135
13.411445824695626
13.412207984911923
13.412905266456532
13.41355596345143
13.41418043826815
13.414800230143467
13.415437597301146
13.416115232323222
13.416855911733768
13.417681822754336
13.418613275456183
13.41966647886688
13.420850029149232
13.422159933848583
13.423573323107567
13.425041950974077
13.426487928213731
13.427805435699446
13.428871995066476
13.429569910285439
13.42981310773952
15.199721610446337
15.1998177004609
15.20009512672135
15.200524118048722
15.201063112882895
15.201667525614436
15.20229728832864
15.202921421502733
15.203519486265892
15.204080740637275
15.204602197864675
15.205086465701028
15.205539886256542
15.205971153206178
15.206390374332335
15.206808481198564
15.207236864118975
15.20768709575817
15.208170615141244
15.20869823449042
15.209279319488086
15.209920493965576
15.210623729549049
15.211383821171903
15.212185457993975
15.213000580770402
15.213787238630404
15.21449148433975
15.215053470313173
15.215417488560576
15.215543666945251
16.99530441634738
16.99532457514075
16.995383810019206
16.995478624896332
16.995603880415455
16.995753603592107
16.995921787260762
16.99610300906118
16.996292809330402
16.99648782909753
16.996685781396668
16.99688531691037
16.99708584625144
16.997287358743364
16.99749025073125
16.99769516905084
16.997902868560317
16.998114072179376
16.998329324181505
16.998548826172325
16.99877224720327
16.998998507079897
16.99922553609342
16.999450044586073
16.99966734456974
16.99987130772497
17.000054553092603
17.000208945616794
17.00032642490853
17.000400068416795
17.000425172641236
17.095487207541666
17.095503826434726
17.09555284214979
17.095631864980437
17.09573731831568
17.095864933548327
17.0960102660624
17.09616912784178
17.09633789030373
17.09651363736719
17.096694201939705
17.096878113203516
17.097064494088468
17.097252938804267
17.097443382516612
17.09763597175826
17.097830939287604
17.098028477596174
17.09822860752763
17.09843103749674
17.098635011033476
17.098839147402764
17.09904128263672
17.099238341573276
17.09942627059689
17.099600084926383
17.099754077433683
17.0998822188826
17.09997873834
17.100038809143868
17.100059210310825
17.195566453739218
17.19558042249256
17.195621741262155
17.195688728419395
17.195778830385514
17.195888933223426
17.19601570169249
17.196155880535052
17.196306526259015
17.19646514564207
17.19662975582193
17.19679887509309
17.19697146812797
17.19714686634239
17.197324672339754
17.197504657100467
17.19768665581714
17.197870460199248
17.198055707526027
17.198241765932572
17.19842761731346
17.198611744903545
17.198792033073072
17.19896570424091
17.19912931110979
17.199278817141508
17.19940978664611
17.199517691679382
17.199598317518067
17.199648213399026
17.199665109497502
17.295547177810146
17.295559113029416
17.295594496753473
17.295652113954706
17.295730097290082
17.295826128420284
17.29593766477913
17.29606215003052
17.29619718772914
17.29634065645603
17.296490773340064
17.296646105884644
17.29680554601559
17.2969682601937
17.297133621265072
17.297301129574706
17.29747032983279
17.297640723551424
17.297811679534156
17.297982344185503
17.29815155478263
17.298317763102546
17.298478975521157
17.298632728768517
17.29877611102803
17.298905848128285
17.299018462856434
17.299110505409136
17.299178837871324
17.29922093581291
17.299235158279632
17.395433153652228
17.395443495278105
17.39547420926019
17.39552439574684
17.39559265756554
17.395677233278974
17.395776151432973
17.395887378471166
17.39600894767598
17.396139050885985
17.396276096716925
17.396418730973338
17.396565827349676
17.396716457568044
17.39686984399988
17.397025300847336
17.397182170112185
17.3973397530731
17.39749724077766
17.397653646367758
17.39780774293038
17.39795801362788
17.39810261841812
17.39823939182554
17.39836587579307
17.398479399479633
17.39857720746692
17.398656631331498
17.398715290763345
17.39875129891243
17.398763441402107
17.495227239313717
17.49523630971854
17.495263286204086
17.495307486364624
17.495367841182244
17.495442984746052
17.49553136085537
17.495631327784984
17.495741253818547
17.495859588672488
17.49598491345618
17.496115963212368
17.49625162680896
17.49639093028783
17.49653300484544
17.49667704416712
17.49682225670545
17.496967813868462
17.497112797885542
17.49725615243746
17.497396639616156
17.497532808964976
17.497662981266373
17.49778525797202
17.49789755681655
17.497997680907464
17.49808341977708
17.498152676903178
17.498203613237788
17.49823478934818
17.498245286660673
17.59173371884071
17.59174175772904
17.591765692976544
17.591804995105896
17.59185882812031
17.591926111085197
17.59200559291519
17.59209592720907
17.592195743178657
17.59230370062223
17.592418531368867
17.592539060878856
17.592664212920923
17.59279300152254
17.59292451013024
17.593057861581237
17.59319218372775
17.593326571573616
17.593460049514444
17.59359153659622
17.59371981791035
17.593843526829442
17.593961139448158
17.594070989549515
17.594171302624474
17.594260253643682
17.594336045914822
17.59439700608278
17.59444168761406
17.594468970725675
17.594478146089568
17.68173365286236
17.681740841782375
17.68176226513053
17.68179750289525
17.681845887246652
17.68190654548321
17.68197845324932
17.682060488467695
17.682151484263223
17.68225027107013
17.6823557104357
17.682466714437947
17.68258225263537
17.682701349564514
17.682823071952075
17.682946508368932
17.683070745439142
17.683194841202464
17.683317798831826
17.683438543241326
17.683555903148854
17.683668602353748
17.68377526063861
17.683874410794573
17.683964529225165
17.68404408337817
17.684111593073123
17.68416570162021
17.68420525123239
17.684229354311036
17.684237452246705
17.765195470677
17.765201951792093
17.765221279249154
17.76525311258972
17.765296907065895
17.76535194403732
17.76541736937493
17.76549223270146
17.765575527178257
17.765666221764953
17.76576328862039
17.765865720029907
17.765972536247425
17.766082786539716
17.766195542150367
17.76630988324835
17.76642488332726
17.766539591350025
17.76665301437856
17.766764102780098
17.766871740029362
17.766974740076204
17.767071852024873
17.767161777342316
17.767243196549956
17.7673148078455
17.767375374855412
17.767423780245217
17.767459081293538
17.767480561467984
17.7674877724075
17.842089839051344
17.84209572612249
17.84211329166459
17.84214225383294
17.842182159132673
17.842232404242857
17.842292264130027
17.842360920898688
17.842437493999626
17.842521065053468
17.842610700089875
17.84270546411609
17.842804429128226
17.84290667740105
17.84301129853059
17.843117381802255
17.843224006800977
17.843330232271388
17.843435085513683
17.843537553975942
17.84363658058039
17.843731065118718
17.843819871022156
17.843901841817317
17.843975824052652
17.844040698698237
17.84409541850475
17.84413904876856
17.844170808774955
17.84419010964075
17.844196584759526
17.912389617864456
17.91239500386897
17.912411081249992
17.912437611883796
17.912474210724497
17.912520361700825
17.91257543861136
17.91263872658727
17.912709445312867
17.912786768282572
17.912869840977244
17.912957793380272
17.913049747806983
17.91314482359543
17.913242137020013
17.913340797635776
17.91343990351816
17.913538535161067
17.91363574991213
17.91373057822593
17.913822022871468
17.91390906293359
17.91399066163458
17.914065781637248
17.91413340462755
17.914192556930274
17.91424233896293
17.914281956558405
17.9143107522686
17.914328233531048
17.914334095091945
17.97606984369922
17.976074806206846
17.9760896244075
17.976114093140573
17.97614787922877
17.976190533235815
17.97624150525687
17.97630016110322
17.976365800420282
17.976437671801747
17.976514987817065
17.97659693582422
17.976682685469243
17.97677139423184
17.976862209342443
17.97695426700975
17.977046691058064
17.97713859054182
17.977229057870957
17.97731716841085
17.977401982372736
17.977482550453974
17.977557922086245
17.977627159479972
17.97768935436812
17.977743649058002
17.977789259895985
17.977825501633177
17.977851811404573
17.977867770013766
17.977873118712616
18.03310811251311
18.033112717539833
18.033126471879623
18.03314919543916
18.033180594667808
18.033220271401877
18.033267735021063
18.033322414848943
18.03338367454166
18.033450824131947
18.033523132642372
18.033599837525124
18.03368015179145
18.03376327005984
18.033848371856788
18.033934622910703
18.034021176246167
18.03410717249816
18.034191740696933
18.03427400023274
18.034353064568133
18.03442804786818
18.034498073313685
18.034562285934403
18.034619867010782
18.034670051561488
18.034712147282676
18.034745553776823
18.034769781212944
18.034784466677422
18.03478938694643
18.083483877179514
18.083488182001766
18.083501042278456
18.08352229708838
18.08355168331502
18.083588842429087
18.08363333004612
18.083684625607983
18.083742144045516
18.083805245556785
18.083873246384186
18.083945427169922
18.08402103972886
18.084099313374587
18.08417945916374
18.08426067265246
18.084342136742023
18.084423023924657
18.084502498955416
18.084579722460838
18.08465385586292
18.084724068572285
18.084789546170413
18.084849502153794
18.084903190441686
18.084949920103718
18.084989070888504
18.085020108656558
18.085042600162897
18.085056225851257
18.085060789760586
18.127179410916085
18.127183466153816
18.1271955826852
18.127215614274338
18.12724332120388
18.12727837559433
18.12732036909991
18.12736882063683
18.1274231860568
18.12748286626112
18.127547216592973
18.12761555435005
18.127687165239497
18.12776130984134
18.127837228486065
18.127914145032552
18.127991270942896
18.1280678088894
18.12814295674394
18.128215912308903
18.128285879028127
18.128352073469184
18.128413733282603
18.128470128008953
18.128520570081726
18.128564427435872
18.12860113647743
18.1286302147143
18.128651272709927
18.12866402430682
18.12866829447541
18.164178929075046
18.164182780272213
18.164194288493352
18.16421331869652
18.164239649059056
18.164272975260513
18.16431291684809
18.164359023567688
18.16441078359388
18.164467630431616
18.16452895127489
18.164594093875174
18.16466237272702
18.164733075584326
18.164805468754917
18.16487880158039
18.164952311359347
18.165025227897146
18.165096778398947
18.165166192951837
18.165232710731814
18.165295587607524
18.165354103848642
18.165407574155928
18.165455357489655
18.16549686807068
18.165531586445105
18.16555907005849
18.165578963152797
18.16559100513583
18.16559503695478
18.19446932465699
18.194473013500538
18.194484037518915
18.194502270075812
18.19452750282348
18.194559449258254
18.19459775014533
18.194641978861178
18.194691648589885
18.194746218353888
18.19480510061487
18.19486766766012
18.194933257570632
18.195001180742704
18.1950707254506
18.1951411627993
18.195211752220715
18.19528174666313
18.19535039809051
18.19541696345565
18.195480711208784
18.19554092892762
18.19559693078652
18.195648066966204
18.195693732588023
18.195733377518483
18.19576651603807
18.195792735926087
18.195811706879798
18.19582318756056
18.19582703091919
18.218039815492148
18.218043380781566
18.218054036212706
18.21807166125887
18.218096057388856
18.218126951124184
18.218163998815044
18.218206791301462
18.218254860389074
18.21830768427248
18.218364694597604
18.218425282500476
18.21848880440827
18.2185545885447
18.218621940659116
18.218690149288317
18.21875849162831
18.218826239144317
18.218892663464636
18.218957042664297
18.219018667949328
18.21907685126638
18.219130932568888
18.219180288755467
18.219224341949563
18.219262568443
18.219294507373448
18.219319768761025
18.219338040894222
18.219349096455467
18.21935279712035
18.234881867616593
18.234885346058455
18.234895742355395
18.234912940131096
18.234936747534423
18.234966899974033
18.235003064471737
18.2350448438806
18.235091782887718
18.23514337303881
18.235199059441776
18.235258246571266
18.235320303952104
18.23538457264284
18.235450371062782
18.235517000445036
18.235583750940645
18.235649907490263
18.235714755960746
18.23577758961469
18.235837715890728
18.235894463978802
18.235947191933423
18.235995295282226
18.236038214859295
18.236075445169536
18.23610654240549
18.236131131790504
18.23614891428433
18.236159672104925
18.236163272852945
18.244989531760226
18.24499295864114
18.24500320107231
18.245020145086457
18.245043602714293
18.245073314538093
18.24510895380705
18.245150130405744
18.245196396589293
18.245247251781787
18.24530214907473
18.24536050089642
18.245421684625573
18.24548504905792
18.245549920284116
18.245615607245973
18.245681407966575
18.245746615563775
18.245810524517573
18.24587243723748
18.24593167088921
18.245987564942013
18.24603948818738
18.24608684715254
18.24612909367442
18.24616573293024
18.2461963310762
18.24622052219569
18.246238014618434
18.246248596100525
18.246252137680507
18.248359144881583
18.248362554665455
18.248372746073336
18.248389605927823
18.248412947533172
18.248442513170517
18.24847797813638
18.248518954630622
18.248564997404824
18.248615608487654
18.248670243616544
18.248728317862707
18.248789211221833
18.24885227507439
18.248916838079108
18.248982211761856
18.24904769678542
18.249112589007993
18.24917618579158
18.24923779259982
18.24929672983834
18.2493523403915
18.24940399660938
18.24945110865648
18.24949313200073
18.249529575335096
18.249560008093173
18.24958406726912
18.249601463611548
18.249611986692866
18.24961550867859
