# vtk DataFile Version 2.0
Unstructured Grid Example
ASCII
DATASET UNSTRUCTURED_GRID

POINTS 961 float
0.400000004 0.01999999956 0
0.3866666556 0.01999999956 0
0.3733333348 0.01999999956 0
0.3600000144 0.01999999956 0
0.346666664 0.01999999956 0
0.3333333432 0.01999999956 0
0.3199999928 0.01999999956 0
0.3066666724 0.01999999956 0
0.293333322 0.01999999956 0
0.2800000012 0.01999999956 0
0.2666666804 0.01999999956 0
0.25333333 0.01999999956 0
0.2399999948 0.01999999956 0
0.226666674 0.01999999956 0
0.2133333384 0.01999999956 0
0.2000000028 0.01999999956 0
0.1866666676 0.01999999956 0
0.173333332 0.01999999956 0
0.1599999964 0.01999999956 0
0.1466666608 0.01999999956 0
0.1333333404 0.01999999956 0
0.1199999972 0.01999999956 0
0.1066666692 0.01999999956 0
0.0933333336 0.01999999956 0
0.0799999984 0.01999999956 0
0.06666667 0.01999999956 0
0.0533333348 0.01999999956 0
0.03999999912 0.01999999956 0
0.02666666732 0.01999999956 0
0.01333333364 0.01999999956 0
0.0 0.01999999956 0
0.400000004 0.00666666684 0
0.3866666556 0.00666666684 0
0.3733333348 0.00666666684 0
0.3600000144 0.00666666684 0
0.346666664 0.00666666684 0
0.3333333432 0.00666666684 0
0.3199999928 0.00666666684 0
0.3066666724 0.00666666684 0
0.293333322 0.00666666684 0
0.2800000012 0.00666666684 0
0.2666666804 0.00666666684 0
0.25333333 0.00666666684 0
0.2399999948 0.00666666684 0
0.226666674 0.00666666684 0
0.2133333384 0.00666666684 0
0.2000000028 0.00666666684 0
0.1866666676 0.00666666684 0
0.173333332 0.00666666684 0
0.1599999964 0.00666666684 0
0.1466666608 0.00666666684 0
0.1333333404 0.00666666684 0
0.1199999972 0.00666666684 0
0.1066666692 0.00666666684 0
0.0933333336 0.00666666684 0
0.0799999984 0.00666666684 0
0.06666667 0.00666666684 0
0.0533333348 0.00666666684 0
0.03999999912 0.00666666684 0
0.02666666732 0.00666666684 0
0.01333333364 0.00666666684 0
0.0 0.00666666684 0
0.400000004 -0.00666666684 0
0.3866666556 -0.00666666684 0
0.3733333348 -0.00666666684 0
0.3600000144 -0.00666666684 0
0.346666664 -0.00666666684 0
0.3333333432 -0.00666666684 0
0.3199999928 -0.00666666684 0
0.3066666724 -0.00666666684 0
0.293333322 -0.00666666684 0
0.2800000012 -0.00666666684 0
0.2666666804 -0.00666666684 0
0.25333333 -0.00666666684 0
0.2399999948 -0.00666666684 0
0.226666674 -0.00666666684 0
0.2133333384 -0.00666666684 0
0.2000000028 -0.00666666684 0
0.1866666676 -0.00666666684 0
0.173333332 -0.00666666684 0
0.1599999964 -0.00666666684 0
0.1466666608 -0.00666666684 0
0.1333333404 -0.00666666684 0
0.1199999972 -0.00666666684 0
0.1066666692 -0.00666666684 0
0.0933333336 -0.00666666684 0
0.0799999984 -0.00666666684 0
0.06666667 -0.00666666684 0
0.0533333348 -0.00666666684 0
0.03999999912 -0.00666666684 0
0.02666666732 -0.00666666684 0
0.01333333364 -0.00666666684 0
0.0 -0.00666666684 0
0.400000004 -0.01999999956 0
0.3866666556 -0.01999999956 0
0.3733333348 -0.01999999956 0
0.3600000144 -0.01999999956 0
0.346666664 -0.01999999956 0
0.3333333432 -0.01999999956 0
0.3199999928 -0.01999999956 0
0.3066666724 -0.01999999956 0
0.293333322 -0.01999999956 0
0.2800000012 -0.01999999956 0
0.2666666804 -0.01999999956 0
0.25333333 -0.01999999956 0
0.2399999948 -0.01999999956 0
0.226666674 -0.01999999956 0
0.2133333384 -0.01999999956 0
0.2000000028 -0.01999999956 0
0.1866666676 -0.01999999956 0
0.173333332 -0.01999999956 0
0.1599999964 -0.01999999956 0
0.1466666608 -0.01999999956 0
0.1333333404 -0.01999999956 0
0.1199999972 -0.01999999956 0
0.1066666692 -0.01999999956 0
0.0933333336 -0.01999999956 0
0.0799999984 -0.01999999956 0
0.06666667 -0.01999999956 0
0.0533333348 -0.01999999956 0
0.03999999912 -0.01999999956 0
0.02666666732 -0.01999999956 0
0.01333333364 -0.01999999956 0
0.0 -0.01999999956 0
0.400000004 -0.03333333508 0
0.3866666556 -0.03333333508 0
0.3733333348 -0.03333333508 0
0.3600000144 -0.03333333508 0
0.346666664 -0.03333333508 0
0.3333333432 -0.03333333508 0
0.3199999928 -0.03333333508 0
0.3066666724 -0.03333333508 0
0.293333322 -0.03333333508 0
0.2800000012 -0.03333333508 0
0.2666666804 -0.03333333508 0
0.25333333 -0.03333333508 0
0.2399999948 -0.03333333508 0
0.226666674 -0.03333333508 0
0.2133333384 -0.03333333508 0
0.2000000028 -0.03333333508 0
0.1866666676 -0.03333333508 0
0.173333332 -0.03333333508 0
0.1599999964 -0.03333333508 0
0.1466666608 -0.03333333508 0
0.1333333404 -0.03333333508 0
0.1199999972 -0.03333333508 0
0.1066666692 -0.03333333508 0
0.0933333336 -0.03333333508 0
0.0799999984 -0.03333333508 0
0.06666667 -0.03333333508 0
0.0533333348 -0.03333333508 0
0.03999999912 -0.03333333508 0
0.02666666732 -0.03333333508 0
0.01333333364 -0.03333333508 0
0.0 -0.03333333508 0
0.400000004 -0.0466666668 0
0.3866666556 -0.0466666668 0
0.3733333348 -0.0466666668 0
0.3600000144 -0.0466666668 0
0.346666664 -0.0466666668 0
0.3333333432 -0.0466666668 0
0.3199999928 -0.0466666668 0
0.3066666724 -0.0466666668 0
0.293333322 -0.0466666668 0
0.2800000012 -0.0466666668 0
0.2666666804 -0.0466666668 0
0.25333333 -0.0466666668 0
0.2399999948 -0.0466666668 0
0.226666674 -0.0466666668 0
0.2133333384 -0.0466666668 0
0.2000000028 -0.0466666668 0
0.1866666676 -0.0466666668 0
0.173333332 -0.0466666668 0
0.1599999964 -0.0466666668 0
0.1466666608 -0.0466666668 0
0.1333333404 -0.0466666668 0
0.1199999972 -0.0466666668 0
0.1066666692 -0.0466666668 0
0.0933333336 -0.0466666668 0
0.0799999984 -0.0466666668 0
0.06666667 -0.0466666668 0
0.0533333348 -0.0466666668 0
0.03999999912 -0.0466666668 0
0.02666666732 -0.0466666668 0
0.01333333364 -0.0466666668 0
0.0 -0.0466666668 0
0.400000004 -0.0599999988 0
0.3866666556 -0.0599999988 0
0.3733333348 -0.0599999988 0
0.3600000144 -0.0599999988 0
0.346666664 -0.0599999988 0
0.3333333432 -0.0599999988 0
0.3199999928 -0.0599999988 0
0.3066666724 -0.0599999988 0
0.293333322 -0.0599999988 0
0.2800000012 -0.0599999988 0
0.2666666804 -0.0599999988 0
0.25333333 -0.0599999988 0
0.2399999948 -0.0599999988 0
0.226666674 -0.0599999988 0
0.2133333384 -0.0599999988 0
0.2000000028 -0.0599999988 0
0.1866666676 -0.0599999988 0
0.173333332 -0.0599999988 0
0.1599999964 -0.0599999988 0
0.1466666608 -0.0599999988 0
0.1333333404 -0.0599999988 0
0.1199999972 -0.0599999988 0
0.1066666692 -0.0599999988 0
0.0933333336 -0.0599999988 0
0.0799999984 -0.0599999988 0
0.06666667 -0.0599999988 0
0.0533333348 -0.0599999988 0
0.03999999912 -0.0599999988 0
0.02666666732 -0.0599999988 0
0.01333333364 -0.0599999988 0
0.0 -0.0599999988 0
0.400000004 -0.0733333304 0
0.3866666556 -0.0733333304 0
0.3733333348 -0.0733333304 0
0.3600000144 -0.0733333304 0
0.346666664 -0.0733333304 0
0.3333333432 -0.0733333304 0
0.3199999928 -0.0733333304 0
0.3066666724 -0.0733333304 0
0.293333322 -0.0733333304 0
0.2800000012 -0.0733333304 0
0.2666666804 -0.0733333304 0
0.25333333 -0.0733333304 0
0.2399999948 -0.0733333304 0
0.226666674 -0.0733333304 0
0.2133333384 -0.0733333304 0
0.2000000028 -0.0733333304 0
0.1866666676 -0.0733333304 0
0.173333332 -0.0733333304 0
0.1599999964 -0.0733333304 0
0.1466666608 -0.0733333304 0
0.1333333404 -0.0733333304 0
0.1199999972 -0.0733333304 0
0.1066666692 -0.0733333304 0
0.0933333336 -0.0733333304 0
0.0799999984 -0.0733333304 0
0.06666667 -0.0733333304 0
0.0533333348 -0.0733333304 0
0.03999999912 -0.0733333304 0
0.02666666732 -0.0733333304 0
0.01333333364 -0.0733333304 0
0.0 -0.0733333304 0
0.400000004 -0.086666666 0
0.3866666556 -0.086666666 0
0.3733333348 -0.086666666 0
0.3600000144 -0.086666666 0
0.346666664 -0.086666666 0
0.3333333432 -0.086666666 0
0.3199999928 -0.086666666 0
0.3066666724 -0.086666666 0
0.293333322 -0.086666666 0
0.2800000012 -0.086666666 0
0.2666666804 -0.086666666 0
0.25333333 -0.086666666 0
0.2399999948 -0.086666666 0
0.226666674 -0.086666666 0
0.2133333384 -0.086666666 0
0.2000000028 -0.086666666 0
0.1866666676 -0.086666666 0
0.173333332 -0.086666666 0
0.1599999964 -0.086666666 0
0.1466666608 -0.086666666 0
0.1333333404 -0.086666666 0
0.1199999972 -0.086666666 0
0.1066666692 -0.086666666 0
0.0933333336 -0.086666666 0
0.0799999984 -0.086666666 0
0.06666667 -0.086666666 0
0.0533333348 -0.086666666 0
0.03999999912 -0.086666666 0
0.02666666732 -0.086666666 0
0.01333333364 -0.086666666 0
0.0 -0.086666666 0
0.400000004 -0.1000000016 0
0.3866666556 -0.1000000016 0
0.3733333348 -0.1000000016 0
0.3600000144 -0.1000000016 0
0.346666664 -0.1000000016 0
0.3333333432 -0.1000000016 0
0.3199999928 -0.1000000016 0
0.3066666724 -0.1000000016 0
0.293333322 -0.1000000016 0
0.2800000012 -0.1000000016 0
0.2666666804 -0.1000000016 0
0.25333333 -0.1000000016 0
0.2399999948 -0.1000000016 0
0.226666674 -0.1000000016 0
0.2133333384 -0.1000000016 0
0.2000000028 -0.1000000016 0
0.1866666676 -0.1000000016 0
0.173333332 -0.1000000016 0
0.1599999964 -0.1000000016 0
0.1466666608 -0.1000000016 0
0.1333333404 -0.1000000016 0
0.1199999972 -0.1000000016 0
0.1066666692 -0.1000000016 0
0.0933333336 -0.1000000016 0
0.0799999984 -0.1000000016 0
0.06666667 -0.1000000016 0
0.0533333348 -0.1000000016 0
0.03999999912 -0.1000000016 0
0.02666666732 -0.1000000016 0
0.01333333364 -0.1000000016 0
0.0 -0.1000000016 0
0.400000004 -0.1133333372 0
0.3866666556 -0.1133333372 0
0.3733333348 -0.1133333372 0
0.3600000144 -0.1133333372 0
0.346666664 -0.1133333372 0
0.3333333432 -0.1133333372 0
0.3199999928 -0.1133333372 0
0.3066666724 -0.1133333372 0
0.293333322 -0.1133333372 0
0.2800000012 -0.1133333372 0
0.2666666804 -0.1133333372 0
0.25333333 -0.1133333372 0
0.2399999948 -0.1133333372 0
0.226666674 -0.1133333372 0
0.2133333384 -0.1133333372 0
0.2000000028 -0.1133333372 0
0.1866666676 -0.1133333372 0
0.173333332 -0.1133333372 0
0.1599999964 -0.1133333372 0
0.1466666608 -0.1133333372 0
0.1333333404 -0.1133333372 0
0.1199999972 -0.1133333372 0
0.1066666692 -0.1133333372 0
0.0933333336 -0.1133333372 0
0.0799999984 -0.1133333372 0
0.06666667 -0.1133333372 0
0.0533333348 -0.1133333372 0
0.03999999912 -0.1133333372 0
0.02666666732 -0.1133333372 0
0.01333333364 -0.1133333372 0
0.0 -0.1133333372 0
0.400000004 -0.1266666652 0
0.3866666556 -0.1266666652 0
0.3733333348 -0.1266666652 0
[...]
POINT_DATA 961
SCALARS Temp float 1
LOOKUP_TABLE default
0.7096688684718442
0.7380132591268016
0.7583542049824055
0.7731440702060901
0.7839807297652082
0.7919598821134061
0.7978615961817968
0.8022473355638736
0.8055257561303539
0.8079962847807514
0.809880920766102
0.8113462868102684
0.8125197176760528
0.8135017813252533
0.8143756214437726
0.8152143687073684
0.816087927406526
0.8170692141102265
0.8182407117278209
0.8197019674816088
0.8215787243294757
0.8240349429381546
0.8272881261161488
0.8316310922258858
0.8374612064310085
0.8453218650484179
0.8559615986303688
0.8704205385468078
0.89016212286615
0.9173102242875774
0.9552338396805404
0.749042072159481
0.7768357478457621
0.7969582163367551
0.8116671231130121
0.8224665695766022
0.8304304444244724
0.8363275541324293
0.8407140021119971
0.8439956433579235
0.8464704474012554
0.8483596652583106
0.8498295676829225
0.8510073649237985
0.8519936222960198
0.8528715485686732
0.8537143793683142
0.8545921384759946
0.8555778613203376
0.8567541311151182
0.8582205505179374
0.8601028313606072
0.8625647368316227
0.865823285265124
0.8701702804422184
0.8760011230444087
0.8838554670271019
0.8944746518364544
0.9088839442897786
0.9285158339305619
0.9553871435655308
0.9924190815582287
2.5924588234828168
2.5965879958006575
2.6080961112631904
2.6187100199980207
2.6274868245438374
2.6344698511825797
2.639937313510903
2.644189554850522
2.647492982445495
2.650068705605193
2.652095611274191
2.6537175298648377
2.655051001431482
2.656192539283861
2.6572250941904305
2.658223834339558
2.6592615208501367
2.6604137797189447
2.6617645550667075
2.6634120825644443
2.665475716594898
2.668103837204369
2.6714829732405696
2.675847783091502
2.6814903346990837
2.6887639268271237
2.6980677700772056
2.7097717754970647
2.723932935879899
2.7392834733207145
2.7447944809305005
4.412901987269066
4.415155321574887
4.420685851681502
4.427596412063473
4.434148590140225
4.439829084647858
4.444554490249029
4.448404314459605
4.451510051035479
4.454010281972061
4.456033559672923
4.457693292095795
4.459087959667677
4.460303626296117
4.461417341822431
4.462500873244544
4.463624567922361
4.464861291904442
4.4662904749967876
4.468002273333224
4.470101760791384
4.47271285723447
4.475981133444547
4.480073741735021
4.4851722978267015
4.4914497118910495
4.499010138799086
4.507740577218117
4.516953807562584
4.524329312698838
4.5273343368337615
6.227968604906884
6.229167766600855
6.232408587942339
6.2367965228608915
6.24146925613133
6.24585969471846
6.249734429898451
6.25303834978445
6.2558032202181995
6.2580981486592755
6.2600045964298126
6.261604492460939
6.262975380370478
6.264189302073442
6.265313614665763
6.266412820417193
6.267550919148751
6.268793980117335
6.270212737710359
6.271884981787751
6.273897371668083
6.276346014814445
6.279334501094176
6.282967104619172
6.287332645082004
6.292470842607548
6.298306087210967
6.304525100091486
6.310369760387386
6.314688284887728
6.3162865129038455
8.03979101973707
8.04052135395886
8.042542160854502
8.045435361561356
8.048717082739753
8.052001335193749
8.055052417318587
8.057763977567426
8.060111439021272
8.062116092772593
8.063822352897441
8.065284541158157
8.066559873336182
8.067705267029252
8.068776399600807
8.069828075533513
8.070915312085205
8.07209471642417
8.073425825750874
8.074972044666408
8.076800672203063
8.078981246244616
8.081580891132294
8.084654688451176
8.088227801381954
8.092264866584443
8.096621973432644
8.100982981560186
8.104831600400534
8.107521267449638
8.108493576525886
9.849429536493904
9.849894629899389
9.851205830163327
9.85314409477871
9.855435606270847
9.85783027322245
9.860146722762817
9.862278642631281
9.864180122606966
9.865845929103678
9.867295474488516
9.868561716337151
9.869684266793874
9.870705558147982
9.871669026553318
9.872618570045109
9.873598739762812
9.874655226090141
9.875835274038051
9.87718762796988
9.878761494889952
9.880603831788125
9.882753925139522
9.885233984997402
9.888034137671234
9.891090829268514
9.894260426708549
9.897299499134212
9.899873286340446
9.901615661792333
9.90223389890279
11.65735158327016
11.657651090699787
11.658504809752975
11.659793196818418
11.661358356911304
11.663044258892086
11.6647250165869
11.666315926936065
11.667771138755391
11.66907500436607
11.67023261773994
11.671262031842332
11.672188761643731
11.673042318986408
11.673854257323665
11.67465724610179
11.675484764334392
11.67637104256424
11.677350926113274
11.678459305597823
11.679729690725004
11.681191409251769
11.682864765693495
11.684753554744589
11.686834531735467
11.689044634591502
11.691269385576442
11.69333966245745
11.695046421900335
11.696178376810572
11.696575660710486
13.463789331940758
13.463974118677486
13.464504692190866
13.4653164423278
13.466321085461605
13.467426871504232
13.468554757942119
13.469646899663593
13.47066799899344
13.471602121782704
13.472447881049197
13.473213773500643
13.473914504879701
13.474568449475608
13.475196059130424
13.475818967833213
13.47645953179562
13.477140543563843
13.477884880043916
13.478714826229822
13.479650781531454
13.48070902579942
13.481898191558217
13.483214265651668
13.484634271876638
13.486109742755
13.48756243295798
13.488886040509154
13.489957528725746
13.490658665340773
13.490902984682956
15.26885592579673
15.268952470935172
15.26923121304635
15.269662244945831
15.270203815052824
15.27081113360522
15.27144394872425
15.272071137917575
15.272672166970908
15.273236242370434
15.273760360842802
15.274247138834392
15.27470294393542
15.275136505837347
15.275557974649997
15.27597832792825
15.276409004023444
15.27686162446701
15.27734767658433
15.277878018128881
15.278462053855892
15.279106434359063
15.279813137060243
15.28057693027591
15.281382430842479
15.282201449494085
15.282991842467435
15.283699415407757
15.28426404713096
15.284629775255677
15.284756545677613
17.07260561040068
17.072625881555567
17.07268544764508
17.07278079600411
17.072906762780367
17.073057346270385
17.073226510021932
17.073408804654125
17.073599747497937
17.073795961244038
17.073995145162904
17.07419594017241
17.074397750348748
17.074600560927973
17.074804765879925
17.075011010708888
17.075220049385873
17.075432603797964
17.07564921642054
17.07587008559638
17.07609487483093
17.076322495160966
17.076550863832118
17.076776672859204
17.076995209868063
17.077200315937922
17.077384574176893
17.07753981055807
17.07765792647497
17.077731966766088
17.077757205857974
17.173244042516828
17.173260757932823
17.173310059162123
17.173389544943422
17.173495621264024
17.17362399853041
17.17377020992219
17.173930045987067
17.174099858881824
17.17427671616251
17.174458437475558
17.174643541639696
17.17483114369058
17.17502083190186
17.17521253691307
17.17540640159544
17.175602655390332
17.17580148728894
17.1760029139015
17.17620663808335
17.176411895831517
17.17661729622606
17.176820661778628
17.177018899932797
17.17720793553385
17.177382758366615
17.177537632954532
17.177666500644662
17.177763562681317
17.17782396931182
17.17784448421498
17.273778416462623
17.27379247017428
17.273834040911808
17.27390143869638
17.273992097174297
17.27410288663742
17.274230454640204
17.274371528675633
17.2745231490428
17.274682808007384
17.274848510204308
17.275018763429046
17.275192523648617
17.275369115051696
17.2755481341038
17.27572934631425
17.275912581647827
17.276097626388218
17.276284111735208
17.27647139861758
17.276658460111108
17.276843768555704
17.277025194935053
17.277199945547686
17.277364554242823
17.27751496329724
17.27764671440037
17.27775525697401
17.277836355514705
17.277886542401003
17.27790353678107
17.374213776983204
17.374225788633005
17.37426139948676
17.37431938826534
17.374397877933074
17.3744945379442
17.374606812064584
17.3747321298055
17.374868080906044
17.37501253101951
17.375163685564228
17.37532010164173
17.375480662006815
17.37564452500174
17.37581105614365
17.37597974892615
17.37615014135932
17.376321728058507
17.376493870377278
17.376665706359223
17.376836063663752
17.377003382895186
17.377165657471078
17.377320409313477
17.37746471008123
17.377595267790724
17.377708586886243
17.377801199766182
17.37786995257946
17.377912308212352
17.377926617520547
17.474553913711247
17.47456432548096
17.47459524822718
17.474645777248845
17.474714507767303
17.474799668599715
17.47489927713032
17.475011287918353
17.47513372225862
17.47526476034441
17.475402799795468
17.475546476201796
17.475694653824437
17.47584639564803
17.476000915836135
17.476157520693842
17.476315544399668
17.476474280223563
17.476632910755626
17.476790439976092
17.476945630874116
17.477096955402693
17.477242561090996
17.477380268853548
17.477507606030354
17.47762188658586
17.47772033993253
17.47780028331163
17.477859323851185
17.4778955648657
17.47790778569742
17.574801695789443
17.57481083176817
17.574838003641197
17.574882525102772
17.57494332095581
17.575019017252043
17.575108048402864
17.575208762442692
17.575319517031726
17.575438751234636
17.575565035752227
17.57569709560585
17.575833810072844
17.575974196012908
17.576117375754787
17.576262534287878
17.576408871380487
17.576555549587713
17.576701641935724
17.576846082382428
17.57698762263487
17.577124801102823
17.577255926658562
17.577379088160768
17.577492190271002
17.57759302289837
17.577679362746583
17.577749101444326
17.577800389752785
17.577831780373288
17.57784234975689
17.671746865626556
17.671754966702995
17.6717790874088
17.671818695019457
17.671872948348202
17.67194075962132
17.67202086962932
17.672111922924987
17.672212539111612
17.672321368097887
17.672437131777503
17.672558645771392
17.67268482417278
17.672814671517052
17.672947261901747
17.673081708875753
17.6732171309673
17.673352613706584
17.673487171752804
17.673619714052766
17.673749015162194
17.673873697457747
17.67399222560087
17.674102921625828
17.674203999156944
17.67429362148581
17.674369980824693
17.674431393770053
17.67447640528499
17.67450388910377
17.674513131832107
17.762155840002503
17.76216308847714
17.7621846895425
17.76222022039739
17.76226900872012
17.762330175824747
17.762402690145773
17.76248542143973
17.762577193988225
17.76267682892957
17.762783178265234
17.762895144411516
17.763011687229753
17.763131821571253
17.763254604488488
17.763379114853223
17.76350442952019
17.76362959662964
17.763753609266555
17.763875382023222
17.763993733039214
17.764107375299243
17.764214917589754
17.764314881657683
17.764405732998682
17.764485928549405
17.76455397833309
17.764608516934704
17.7646483792847
17.764672672291052
17.7646808339233
17.84599690967539
17.846003448281277
17.846022947376582
17.84605506403726
17.846099249520908
17.84615477981677
17.846220794250485
17.846296334927814
17.84638038674261
17.84647190981763
17.84656986708107
17.846673241318577
17.846781043101885
17.846892311899172
17.84700610906667
17.847121504796977
17.84723756251305
17.847353320995303
17.847467776996368
17.847579870443635
17.8476884742566
17.847792391764933
17.84789036146187
17.84798107434935
17.84806320079821
17.8481354293923
17.84819651493894
17.848245332357326
17.8482809325351
17.848302594161943
17.848309865919404
17.92324061580841
17.92324655874373
17.923264291124383
17.923293528871476
17.923333814852505
17.92338454082002
17.92344497568032
17.92351429450094
17.923591608898054
17.923675992008633
17.923766500883804
17.923862191173157
17.923962125225334
17.924065375456475
17.924171021441307
17.924278142307898
17.924385807373376
17.924493065019462
17.924598932106676
17.92470238559434
17.924802357909588
17.924897738413744
17.924987380258067
17.925070116975327
17.92514478555929
17.92521025805577
17.925265479133905
17.92530950707217
17.925341555421088
17.925361031041902
17.9253675647074
17.99385970509381
17.99386514567552
17.993881386091694
17.993908186150797
17.993945157426964
17.99399177924484
17.994047419698106
17.994111357236477
17.994182804034963
17.994260925375336
17.99434485795997
17.994433722536048
17.99452663181519
17.994622695251536
17.994721019018883
17.994820702401984
17.994920833085104
17.995020481090677
17.995118693258092
17.995214489548133
17.995306862312866
17.995394780382334
17.99547719697845
17.995553065150578
17.995621357497726
17.99568109195079
17.995731361404243
17.995771365218012
17.995800440695405
17.99581809140274
17.995824009711995
18.057829112842736
18.057834128907363
18.0578491071241
18.05787384038482
18.05790799231911
18.057951109121746
18.058002635443998
18.058061930679372
18.058128287208422
18.058200945619618
18.058279109861775
18.058361958158592
18.058448650598667
18.05853833477417
18.058630147772554
18.058723215466063
18.058816651215466
18.058909553544144
18.059001004325882
18.0590900684532
18.059175795804517
18.05925722697905
18.059333401641023
18.05940337269273
18.05946622314653
18.05952108732397
18.059567174472328
18.059603793278967
18.05963037599253
18.05964649982998
18.05965190385079
18.115126346876245
18.11513100465148
18.11514491661199
18.115167900804195
18.115199660620316
18.115239793699633
18.11528780416996
18.115343115132806
18.11540508316295
18.115473010446404
18.115546157508874
18.115623752752683
18.115704999676353
18.115789083020005
18.115875172148783
18.11596242241978
18.11604997635595
18.116136964033892
18.11622250394516
18.116305705042052
18.11638567053659
18.116461504631904
18.11653232093307
18.116597255405427
18.11665548089501
18.116706224748626
18.11674878788557
18.116782564152842
18.11680705910387
18.116821906450113
18.116826880910157
18.165730781292165
18.16573513822415
18.165748154227035
18.165769666582765
18.165799409216802
18.16583701952859
18.16588204802309
18.1659339680652
18.165992187642004
18.166056059225397
18.166124890657564
18.16619795359974
18.16627449039501
18.16635372049437
18.166434844789578
18.166517048450896
18.166599503861846
18.166681372949252
18.166761809941665
18.166839965068135
18.166914989576263
18.16698604303036
18.167052301592392
18.16711296988748
18.167167293623276
18.16721457443854
18.16725418554992
18.16728558729462
18.167308342014973
18.167322126937584
18.167326744143995
18.20962462364071
18.2096287304868
18.2096410012561
18.20966128796191
18.209689348001
18.209724849514433
18.209767379149625
18.20981644985309
18.209871510635477
18.209931954763242
18.20999712925411
18.210066342480303
18.210138870713074
18.21021396468821
18.21029085457633
18.210368753848034
18.210446863445082
18.210524375479054
18.21060047731484
18.210674356398243
18.21074520606583
18.210812233135137
18.210874665962574
18.210931765369153
18.210982835748947
18.211027237790276
18.211064401552555
18.211093839195037
18.211115157020153
18.211128065770822
18.21113238853452
18.246792032086866
18.246795934503613
18.24680759580774
18.246826879239794
18.246853560143407
18.246887330285404
18.246927804281864
18.246974525987728
18.247026976812545
18.24708458269489
18.24714672256047
18.247212735279163
18.247281925939966
18.247353572470743
18.247426931028553
18.247501240571125
18.247575727881433
18.247649612214808
18.24772211029124
18.247792441879
18.247859836103885
18.247923539162617
18.24798282212987
18.248036991104446
18.248085397138965
18.248127447347066
18.248162616067475
18.24819045552747
18.248210605820688
18.2482228033424
18.248226887211814
18.277219853634946
18.277223593402866
18.27723476962673
18.27725325397646
18.277278835307886
18.277311223252436
18.27735005369858
18.2773948941888
18.27744525119755
18.277500576231358
18.277560273526472
18.2776237065224
18.27769020391918
18.277759066303414
18.27782957180893
18.277900981164144
18.27797254329333
18.2780435006073
18.27811309460581
18.278180571955353
18.278245191102435
18.278306230014344
18.278362993746793
18.27841482396776
18.27846110798978
18.278501288675802
18.278534874201835
18.278561447224686
18.27858067337582
18.278592308367568
18.27859620336287
18.300897269122036
18.300900885119834
18.30091169211416
18.300929567901008
18.300954311178682
18.300985644637077
18.3010232197877
18.30106662167657
18.301115375438876
18.301168951789247
18.301226774179206
18.301288224921993
18.30135265108271
18.30141937108888
18.301487680558946
18.30155685766084
18.301626169091413
18.301694875790268
18.301762238939368
18.301827526353524
18.30189001927085
18.301949020073916
18.302003859653894
18.30205390646193
18.30209857488414
18.302137334283422
18.30216971776653
18.302195330299362
18.302213856163167
18.302225065136362
18.302228817135013
18.317815715727455
18.317819244730487
18.317829792152676
18.317847239951167
18.31787139352129
18.317901984461923
18.317938674981203
18.317981062164584
18.31802868405466
18.318081024741254
18.318137521158782
18.318197568976302
18.318260528369912
18.318325730611896
18.318392483998185
18.318460079399532
18.318527796474903
18.318594909648823
18.31866069435532
18.318724433615717
18.318785424926116
18.318842987944514
18.318896471702015
18.318945263323112
18.318988795953018
18.319026557217846
18.31905809732852
18.319083036499748
18.319101071723054
18.319111982342363
18.3191156342176
18.32796922455744
18.327972701913957
18.327983095215764
18.328000288835117
18.328024092058797
18.32805424167165
18.328090406123394
18.328132189545975
18.32817913756484
18.32823074216198
18.328286448267487
18.3283456595141
18.328407743939746
18.328472040559994
18.32853786534687
18.328604516884113
18.328671282707372
18.32873744542442
18.3288022890908
18.32886510588621
18.32892520304894
18.328981910535287
18.32903458813597
18.32908263400087
18.32912549230602
18.32916266137874
18.329193701421943
18.329218241536516
18.3292359861063
18.329246720030447
18.32925031261754
18.331354120504848
18.33135758073626
18.331367922931243
18.331385032253905
18.331408719267674
18.331438722460263
18.33147471233328
18.331516295338865
18.331563019603703
18.331614379718882
18.331669823264342
18.33172875651907
18.331790550140592
18.331854545731233
18.331920061832758
18.331986399614415
18.332052849253195
18.332118696099265
18.332183227092997
18.33224573747207
18.332305537719694
18.33236196121356
18.332414371310385
18.332462169805815
18.332504804516017
18.33254177729351
18.332572651627835
18.332597059539154
18.332614707837465
18.332625383243812
18.332628956197233
