# vtk DataFile Version 2.0
Unstructured Grid Example
ASCII
DATASET UNSTRUCTURED_GRID

POINTS 961 float
0.400000004 0.01999999956 0
0.3866666556 0.01999999956 0
0.3733333348 0.01999999956 0
0.3600000144 0.01999999956 0
0.346666664 0.01999999956 0
0.3333333432 0.01999999956 0
0.3199999928 0.01999999956 0
0.3066666724 0.01999999956 0
0.293333322 0.01999999956 0
0.2800000012 0.01999999956 0
0.2666666804 0.01999999956 0
0.25333333 0.01999999956 0
0.2399999948 0.01999999956 0
0.226666674 0.01999999956 0
0.2133333384 0.01999999956 0
0.2000000028 0.01999999956 0
0.1866666676 0.01999999956 0
0.173333332 0.01999999956 0
0.1599999964 0.01999999956 0
0.1466666608 0.01999999956 0
0.1333333404 0.01999999956 0
0.1199999972 0.01999999956 0
0.1066666692 0.01999999956 0
0.0933333336 0.01999999956 0
0.0799999984 0.01999999956 0
0.06666667 0.01999999956 0
0.0533333348 0.01999999956 0
0.03999999912 0.01999999956 0
0.02666666732 0.01999999956 0
0.01333333364 0.01999999956 0
0.0 0.01999999956 0
0.400000004 0.00666666684 0
0.3866666556 0.00666666684 0
0.3733333348 0.00666666684 0
0.3600000144 0.00666666684 0
0.346666664 0.00666666684 0
0.3333333432 0.00666666684 0
0.3199999928 0.00666666684 0
0.3066666724 0.00666666684 0
0.293333322 0.00666666684 0
0.2800000012 0.00666666684 0
0.2666666804 0.00666666684 0
0.25333333 0.00666666684 0
0.2399999948 0.00666666684 0
0.226666674 0.00666666684 0
0.2133333384 0.00666666684 0
0.2000000028 0.00666666684 0
0.1866666676 0.00666666684 0
0.173333332 0.00666666684 0
0.1599999964 0.00666666684 0
0.1466666608 0.00666666684 0
0.1333333404 0.00666666684 0
0.1199999972 0.00666666684 0
0.1066666692 0.00666666684 0
0.0933333336 0.00666666684 0
0.0799999984 0.00666666684 0
0.06666667 0.00666666684 0
0.0533333348 0.00666666684 0
0.03999999912 0.00666666684 0
0.02666666732 0.00666666684 0
0.01333333364 0.00666666684 0
0.0 0.00666666684 0
0.400000004 -0.00666666684 0
0.3866666556 -0.00666666684 0
0.3733333348 -0.00666666684 0
0.3600000144 -0.00666666684 0
0.346666664 -0.00666666684 0
0.3333333432 -0.00666666684 0
0.3199999928 -0.00666666684 0
0.3066666724 -0.00666666684 0
0.293333322 -0.00666666684 0
0.2800000012 -0.00666666684 0
0.2666666804 -0.00666666684 0
0.25333333 -0.00666666684 0
0.2399999948 -0.00666666684 0
0.226666674 -0.00666666684 0
0.2133333384 -0.00666666684 0
0.2000000028 -0.00666666684 0
0.1866666676 -0.00666666684 0
0.173333332 -0.00666666684 0
0.1599999964 -0.00666666684 0
0.1466666608 -0.00666666684 0
0.1333333404 -0.00666666684 0
0.1199999972 -0.00666666684 0
0.1066666692 -0.00666666684 0
0.0933333336 -0.00666666684 0
0.0799999984 -0.00666666684 0
0.06666667 -0.00666666684 0
0.0533333348 -0.00666666684 0
0.03999999912 -0.00666666684 0
0.02666666732 -0.00666666684 0
0.01333333364 -0.00666666684 0
0.0 -0.00666666684 0
0.400000004 -0.01999999956 0
0.3866666556 -0.01999999956 0
0.3733333348 -0.01999999956 0
0.3600000144 -0.01999999956 0
0.346666664 -0.01999999956 0
0.3333333432 -0.01999999956 0
0.3199999928 -0.01999999956 0
0.3066666724 -0.01999999956 0
0.293333322 -0.01999999956 0
0.2800000012 -0.01999999956 0
0.2666666804 -0.01999999956 0
0.25333333 -0.01999999956 0
0.2399999948 -0.01999999956 0
0.226666674 -0.01999999956 0
0.2133333384 -0.01999999956 0
0.2000000028 -0.01999999956 0
0.1866666676 -0.01999999956 0
0.173333332 -0.01999999956 0
0.1599999964 -0.01999999956 0
0.1466666608 -0.01999999956 0
0.1333333404 -0.01999999956 0
0.1199999972 -0.01999999956 0
0.1066666692 -0.01999999956 0
0.0933333336 -0.01999999956 0
0.0799999984 -0.01999999956 0
0.06666667 -0.01999999956 0
0.0533333348 -0.01999999956 0
0.03999999912 -0.01999999956 0
0.02666666732 -0.01999999956 0
0.01333333364 -0.01999999956 0
0.0 -0.01999999956 0
0.400000004 -0.03333333508 0
0.3866666556 -0.03333333508 0
0.3733333348 -0.03333333508 0
0.3600000144 -0.03333333508 0
0.346666664 -0.03333333508 0
0.3333333432 -0.03333333508 0
0.3199999928 -0.03333333508 0
0.3066666724 -0.03333333508 0
0.293333322 -0.03333333508 0
0.2800000012 -0.03333333508 0
0.2666666804 -0.03333333508 0
0.25333333 -0.03333333508 0
0.2399999948 -0.03333333508 0
0.226666674 -0.03333333508 0
0.2133333384 -0.03333333508 0
0.2000000028 -0.03333333508 0
0.1866666676 -0.03333333508 0
0.173333332 -0.03333333508 0
0.1599999964 -0.03333333508 0
0.1466666608 -0.03333333508 0
0.1333333404 -0.03333333508 0
0.1199999972 -0.03333333508 0
0.1066666692 -0.03333333508 0
0.0933333336 -0.03333333508 0
0.0799999984 -0.03333333508 0
0.06666667 -0.03333333508 0
0.0533333348 -0.03333333508 0
0.03999999912 -0.03333333508 0
0.02666666732 -0.03333333508 0
0.01333333364 -0.03333333508 0
0.0 -0.03333333508 0
0.400000004 -0.0466666668 0
0.3866666556 -0.0466666668 0
0.3733333348 -0.0466666668 0
0.3600000144 -0.0466666668 0
0.346666664 -0.0466666668 0
0.3333333432 -0.0466666668 0
0.3199999928 -0.0466666668 0
0.3066666724 -0.0466666668 0
0.293333322 -0.0466666668 0
0.2800000012 -0.0466666668 0
0.2666666804 -0.0466666668 0
0.25333333 -0.0466666668 0
0.2399999948 -0.0466666668 0
0.226666674 -0.0466666668 0
0.2133333384 -0.0466666668 0
0.2000000028 -0.0466666668 0
0.1866666676 -0.0466666668 0
0.173333332 -0.0466666668 0
0.1599999964 -0.0466666668 0
0.1466666608 -0.0466666668 0
0.1333333404 -0.0466666668 0
0.1199999972 -0.0466666668 0
0.1066666692 -0.0466666668 0
0.0933333336 -0.0466666668 0
0.0799999984 -0.0466666668 0
0.06666667 -0.0466666668 0
0.0533333348 -0.0466666668 0
0.03999999912 -0.0466666668 0
0.02666666732 -0.0466666668 0
0.01333333364 -0.0466666668 0
0.0 -0.0466666668 0
0.400000004 -0.0599999988 0
0.3866666556 -0.0599999988 0
0.3733333348 -0.0599999988 0
0.3600000144 -0.0599999988 0
0.346666664 -0.0599999988 0
0.3333333432 -0.0599999988 0
0.3199999928 -0.0599999988 0
0.3066666724 -0.0599999988 0
0.293333322 -0.0599999988 0
0.2800000012 -0.0599999988 0
0.2666666804 -0.0599999988 0
0.25333333 -0.0599999988 0
0.2399999948 -0.0599999988 0
0.226666674 -0.0599999988 0
0.2133333384 -0.0599999988 0
0.2000000028 -0.0599999988 0
0.1866666676 -0.0599999988 0
0.173333332 -0.0599999988 0
0.1599999964 -0.0599999988 0
0.1466666608 -0.0599999988 0
0.1333333404 -0.0599999988 0
0.1199999972 -0.0599999988 0
0.1066666692 -0.0599999988 0
0.0933333336 -0.0599999988 0
0.0799999984 -0.0599999988 0
0.06666667 -0.0599999988 0
0.0533333348 -0.0599999988 0
0.03999999912 -0.0599999988 0
0.02666666732 -0.0599999988 0
0.01333333364 -0.0599999988 0
0.0 -0.0599999988 0
0.400000004 -0.0733333304 0
0.3866666556 -0.0733333304 0
0.3733333348 -0.0733333304 0
0.3600000144 -0.0733333304 0
0.346666664 -0.0733333304 0
0.3333333432 -0.0733333304 0
0.3199999928 -0.0733333304 0
0.3066666724 -0.0733333304 0
0.293333322 -0.0733333304 0
0.2800000012 -0.0733333304 0
0.2666666804 -0.0733333304 0
0.25333333 -0.0733333304 0
0.2399999948 -0.0733333304 0
0.226666674 -0.0733333304 0
0.2133333384 -0.0733333304 0
0.2000000028 -0.0733333304 0
0.1866666676 -0.0733333304 0
0.173333332 -0.0733333304 0
0.1599999964 -0.0733333304 0
0.1466666608 -0.0733333304 0
0.1333333404 -0.0733333304 0
0.1199999972 -0.0733333304 0
0.1066666692 -0.0733333304 0
0.0933333336 -0.0733333304 0
0.0799999984 -0.0733333304 0
0.06666667 -0.0733333304 0
0.0533333348 -0.0733333304 0
0.03999999912 -0.0733333304 0
0.02666666732 -0.0733333304 0
0.01333333364 -0.0733333304 0
0.0 -0.0733333304 0
0.400000004 -0.086666666 0
0.3866666556 -0.086666666 0
0.3733333348 -0.086666666 0
0.3600000144 -0.086666666 0
0.346666664 -0.086666666 0
0.3333333432 -0.086666666 0
0.3199999928 -0.086666666 0
0.3066666724 -0.086666666 0
0.293333322 -0.086666666 0
0.2800000012 -0.086666666 0
0.2666666804 -0.086666666 0
0.25333333 -0.086666666 0
0.2399999948 -0.086666666 0
0.226666674 -0.086666666 0
0.2133333384 -0.086666666 0
0.2000000028 -0.086666666 0
0.1866666676 -0.086666666 0
0.173333332 -0.086666666 0
0.1599999964 -0.086666666 0
0.1466666608 -0.086666666 0
0.1333333404 -0.086666666 0
0.1199999972 -0.086666666 0
0.1066666692 -0.086666666 0
0.0933333336 -0.086666666 0
0.0799999984 -0.086666666 0
0.06666667 -0.086666666 0
0.0533333348 -0.086666666 0
0.03999999912 -0.086666666 0
0.02666666732 -0.086666666 0
0.01333333364 -0.086666666 0
0.0 -0.086666666 0
0.400000004 -0.1000000016 0
0.3866666556 -0.1000000016 0
0.3733333348 -0.1000000016 0
0.3600000144 -0.1000000016 0
0.346666664 -0.1000000016 0
0.3333333432 -0.1000000016 0
0.3199999928 -0.1000000016 0
0.3066666724 -0.1000000016 0
0.293333322 -0.1000000016 0
0.2800000012 -0.1000000016 0
0.2666666804 -0.1000000016 0
0.25333333 -0.1000000016 0
0.2399999948 -0.1000000016 0
0.226666674 -0.1000000016 0
0.2133333384 -0.1000000016 0
0.2000000028 -0.1000000016 0
0.1866666676 -0.1000000016 0
0.173333332 -0.1000000016 0
0.1599999964 -0.1000000016 0
0.1466666608 -0.1000000016 0
0.1333333404 -0.1000000016 0
0.1199999972 -0.1000000016 0
0.1066666692 -0.1000000016 0
0.0933333336 -0.1000000016 0
0.0799999984 -0.1000000016 0
0.06666667 -0.1000000016 0
0.0533333348 -0.1000000016 0
0.03999999912 -0.1000000016 0
0.02666666732 -0.1000000016 0
0.01333333364 -0.1000000016 0
0.0 -0.1000000016 0
0.400000004 -0.1133333372 0
0.3866666556 -0.1133333372 0
0.3733333348 -0.1133333372 0
0.3600000144 -0.1133333372 0
0.346666664 -0.1133333372 0
0.3333333432 -0.1133333372 0
0.3199999928 -0.1133333372 0
0.3066666724 -0.1133333372 0
0.293333322 -0.1133333372 0
0.2800000012 -0.1133333372 0
0.2666666804 -0.1133333372 0
0.25333333 -0.1133333372 0
0.2399999948 -0.1133333372 0
0.226666674 -0.1133333372 0
0.2133333384 -0.1133333372 0
0.2000000028 -0.1133333372 0
0.1866666676 -0.1133333372 0
0.173333332 -0.1133333372 0
0.1599999964 -0.1133333372 0
0.1466666608 -0.1133333372 0
0.1333333404 -0.1133333372 0
0.1199999972 -0.1133333372 0
0.1066666692 -0.1133333372 0
0.0933333336 -0.1133333372 0
0.0799999984 -0.1133333372 0
0.06666667 -0.1133333372 0
0.0533333348 -0.1133333372 0
0.03999999912 -0.1133333372 0
0.02666666732 -0.1133333372 0
0.01333333364 -0.1133333372 0
0.0 -0.1133333372 0
0.400000004 -0.1266666652 0
0.3866666556 -0.1266666652 0
0.3733333348 -0.1266666652 0
[...]
POINT_DATA 961
SCALARS Temp float 1
LOOKUP_TABLE default
1.5310204427369896
1.5943997664786411
1.644461928459041
1.684798373958783
1.717529872731824
1.7441658303882983
1.7658540954013415
1.7835032145615435
1.7978580385756298
1.8095441546091742
1.8190999560244918
1.826997443945893
1.8336581547644166
1.839467826629698
1.8447890284599664
1.8499732222748062
1.8553739565293597
1.861360056416642
1.868329517578591
1.8767242071176176
1.8870455070043675
1.8998722326668562
1.915879832889675
1.9358661949528302
1.9607835627834183
1.991784522383447
2.030290033610529
2.07809531189815
2.137549791222474
2.211893965341542
2.3067366989611813
1.5757776345878942
1.637550008011971
1.6871289458953003
1.7272361018889608
1.7598435786974875
1.7864113733272127
1.8080635535094085
1.8256962027057364
1.840046910823561
1.8517368389289774
1.8613015614751167
1.869211267666744
1.8758863485201955
1.881711818702243
1.8870497986250456
1.8922514744739096
1.897670177716086
1.9036744823977516
1.910661993780751
1.919073923676872
1.92941057793646
1.9422490318781789
1.958262021428006
1.978243166291939
2.0031379567202525
2.034087934579287
2.072495020472722
2.120118704086948
2.1792304302852386
2.2528812576958996
2.345026442591385
3.640368121988833
3.6508634368396784
3.6800240147575383
3.7092828223958145
3.735673500301025
3.7585800553414224
3.7781038334535326
3.794574089478618
3.8083891836387536
3.8199577115975667
3.829676751188307
3.837924744106199
3.845061181886477
3.8514299952217335
3.857365003870326
3.8631967830215346
3.8692606140882972
3.8759050919056888
3.8835009597398664
3.8924497813664276
3.9031919690886046
3.9162134129130948
3.9320494609283965
3.951284115543449
3.974538939098034
4.002439097131901
4.03552305053972
4.073999513684632
4.117008396466201
4.160148448354579
4.17568975912054
5.634356032449113
5.640361596961244
5.655551160803434
5.675354753254185
5.695447552398033
5.714181780683304
5.730955394698256
5.745642910479514
5.758343078811855
5.769262355186947
5.778658372674178
5.786811425630178
5.794010544629567
5.800547688035334
5.806716543927598
5.812814182410682
5.819144451592997
5.826022111993488
5.833776907252119
5.842756638890956
5.853328039443877
5.865873809335558
5.880782725116256
5.898428105893748
5.91912411142712
5.94303909584278
5.970018712264715
5.99920316983797
6.028168168779632
6.050479734581
6.059323427452613
7.596957067486215
7.600407257202647
7.609878019629322
7.623148700953789
7.637972520615188
7.652736014970045
7.666599944787696
7.679189713713135
7.690400448474291
7.700281988484303
7.708973185804457
7.716663849180791
7.72357294626843
7.729936599296065
7.736001927054145
7.742024505584354
7.748267947592391
7.755004269157792
7.762513935739955
7.771084327710895
7.78100502795461
7.792557771383587
7.805997372656776
7.821518271497857
7.8391963127639706
7.858888256155491
7.880057203046803
7.9014764593416595
7.920762139705601
7.934578459231765
7.9396206368376445
9.534627955575179
9.536858324654068
9.543113356164607
9.552302827781256
9.563122175278483
9.574458988261519
9.585548824740522
9.595954469332884
9.605472506725228
9.614054893529845
9.621753959329036
9.628685814060319
9.635006850923972
9.640899129569467
9.6465614679844
9.652204196464533
9.658046057857021
9.66431184652124
9.671229571568501
9.679025782347784
9.687917384618427
9.698097809015525
9.709714212886682
9.722831511862323
9.73737635851887
9.753052827044712
9.769222889861052
9.784763177238892
9.79803066030152
9.807091932599818
9.810328347167548
11.451810063704833
11.453305374592022
11.457565244323305
11.463993293856781
11.47182204169965
11.480314713387521
11.488891216414778
11.497161616598166
11.504904711832348
11.512027986703416
11.518530839990532
11.524475824982762
11.529967972691633
11.53514064210295
11.540145999698474
11.545148640796146
11.550321090614657
11.555839915474738
11.561881309637437
11.568614898201256
11.576194276776599
11.584742545230736
11.59433043400658
11.60494468522301
11.61644391324035
11.628501881549996
11.640545836003245
11.651721785521843
11.660942177061164
11.66707156356261
11.669226398436141
13.3519757264777
13.352979004806038
13.355863363264412
13.36029015320648
13.365801177758598
13.371925060976835
13.378257118106728
13.384497488066327
13.390454803633176
13.39603098945586
13.401200639583978
13.405991632892242
13.410469496648979
13.414725749358444
13.418869440718716
13.423021020519169
13.427307644990702
13.431858923529195
13.436802185328244
13.442256252399059
13.448322586482504
13.455072610275106
13.462529789620225
13.470645733351429
13.479270325053134
13.488119557552379
13.496751473556758
13.50456971538457
13.510878862944406
13.515001967903533
13.516438217576782
15.23836328121347
15.239001700337088
15.240848045731779
15.243713292870977
15.247333769112403
15.251426086374513
15.255733476635871
15.26005338832323
15.264246600445562
15.268233349958848
15.271983479453112
15.275505147604884
15.27883467027427
15.282028350690517
15.285156167849507
15.288296929284
15.291534360477286
15.294953461684317
15.298636498683074
15.302657934004097
15.307077561765416
15.311931157169148
15.317217980165303
15.322885261259675
15.328810725407447
15.334786959209408
15.340514736998387
15.345615369508323
15.349670879468967
15.352292060758458
15.353199724666965
17.114181436078145
17.114522440126027
17.115513092879183
17.11706376789629
17.119047029785765
17.12132208511666
17.12375680236832
17.126242415882555
17.12870007950128
17.13108087155364
17.133362140847385
17.135542387446936
17.137636181514228
17.13966979233848
17.141677608120837
17.143699232226993
17.145777029142245
17.1479537829743
17.1502701480407
17.152761540801396
17.155454117730667
17.15835955203982
17.161468396242515
17.164742351950007
17.16810631736497
17.17144245165776
17.174589727676032
17.17735305900061
17.179524725983338
17.180916664973996
17.18139656953849
18.982678537502967
18.982752990677717
18.982972395243245
18.98332554025413
18.983795724637933
18.984363143793583
18.9850073355953
18.985709192437312
18.98645234231916
18.987223837829024
18.988014322802016
18.988817804871506
18.989631201519284
18.990453780014946
18.991286536270493
18.992131548063817
18.99299132239539
18.9938681192866
18.994763246254816
18.99567631366482
18.99660444931428
18.997541498562352
18.99847724278617
18.99939677121941
19.000280139193404
19.001102569458418
19.0018354445219
19.002448278576402
19.00291166182129
19.00320082903385
19.003299170339336
19.08670211257499
19.086763824454266
19.086946213768016
19.087241434661614
19.087637618248714
19.088120371391337
19.08867439026978
19.089284879545797
19.089938632415315
19.09062467402522
19.091334542205402
19.09206225063898
19.092804037779118
19.093557988479198
19.09432356475361
19.095101083232045
19.095891167877426
19.096694174345807
19.09750959443693
19.098335446108635
19.09916766209464
19.09999951376998
19.100821107164048
19.101619065769558
19.10237648764982
19.103073337612592
19.10368739097423
19.104195782734454
19.104577088268744
19.10481367253104
19.104893891623828
19.190392432437072
19.190444261317523
19.19059778259752
19.19084734678631
19.191184302744325
19.191597969891788
19.19207672613162
19.192609013072982
19.193184160202023
19.193792932075823
19.19442782955603
19.195083147032243
19.195754846435992
19.19644030737226
19.197137978403713
19.197846963459714
19.1985665744968
19.199295854981955
19.200033091079757
19.200775324970966
19.201517890564762
19.202254009981786
19.202974483150317
19.203667560883567
19.2043190515409
19.204912758099834
19.205431291252186
19.20585725534314
19.20617472553119
19.206370828494606
19.206437168896628
19.293778691387235
19.29382266747311
19.29395314706745
19.294165945290636
19.294454590560335
19.29481097649145
19.295226114483924
19.295690855491003
19.29619651626146
19.296735326776112
19.297300711630793
19.297887387032805
19.298491308132675
19.29910950615067
19.29973983045673
19.30038062417978
19.30103036355442
19.30168726968276
19.30234891366336
19.30301183380817
19.303671187569048
19.304320473875375
19.30495135102892
19.305553619015203
19.30611539025672
19.306623505992782
19.30706420802207
19.30742404154271
19.30769091797676
19.307855205713967
19.30791068531404
19.396886012108197
19.396923623527055
19.39703535530009
19.397218010028567
19.397466604347084
19.39777482332306
19.398135558566786
19.39854143923208
19.398985313539427
19.399460611289975
19.39996159273059
19.400483457338073
19.401022331965045
19.401575164568836
19.402139531559364
19.402713382134706
19.403294747353854
19.40388142427051
19.404470657305552
19.405058836911817
19.405641237839703
19.406211828430585
19.406763169317333
19.407286453630643
19.407771696411793
19.408208106874888
19.408584636361017
19.408890672190015
19.409116819862405
19.409255679687714
19.40930251070072
19.49973652742786
19.49976890255781
19.499865156367417
19.50002275366505
19.500237720004478
19.500504975294422
19.50081873694361
19.501172926384143
19.50156155035237
19.501978998960602
19.502420262886197
19.502881041230964
19.50335775085401
19.50384745502384
19.504347714994694
19.50485638368622
19.505371366396503
19.505890359287143
19.506410587473468
19.50692856253044
19.507439880298367
19.50793908615671
19.50841962105485
19.50887388830418
19.50929343969977
19.50966930107173
19.50999242302859
19.51025422757752
19.51044720456346
19.510565488890336
19.51060534471266
19.59484487892419
19.594872591786196
19.594955027691054
19.595090138411134
19.59527469943525
19.595504563689456
19.595774972852084
19.59608087623286
19.59641723731063
19.596779279776555
19.597162674208075
19.597563638067626
19.597978954946683
19.59840592550405
19.59884225109129
19.599285865789057
19.599734738738
19.600186657071074
19.600639009801125
19.60108859113089
19.601531441940832
19.601962752514044
19.602376836033656
19.60276720388445
19.60312673669386
19.603447963335
19.603723431603676
19.60394614416564
19.604110023072046
19.60421035084991
19.60424413528454
19.67543143930957
19.675454769724972
19.67552419841954
19.675638082935535
19.67579382909315
19.675988084257657
19.676216977275065
19.676476366998955
19.676762085700815
19.67707013811455
19.677396856988054
19.677738990680467
19.678093725930122
19.678458654552646
19.678831683482404
19.67921090078493
19.679594416217228
19.679980185506572
19.68036583632733
19.68074851222936
19.6811247505682
19.681490413394506
19.681840677856602
19.682170110027055
19.68247281402677
19.68274266391999
19.682973602659406
19.683159985708816
19.6832969407108
19.683380704125664
19.683408896633715
19.742751137328924
19.74277046615831
19.74282800632892
19.74292245303462
19.74305173996839
19.74321318617193
19.74340368002785
19.743619871370353
19.743858362391098
19.744115865849565
19.744389331542916
19.744676020076163
19.74497352551164
19.745279753131456
19.74559285088322
19.745911104481713
19.746232811521168
19.7465561423392
19.746879002886168
19.747198913315
19.74751291553593
19.747817524939705
19.748108730608266
19.74838206234137
19.748632715914173
19.7488557411968
19.74904627919088
19.74919982974569
19.749312527974393
19.74938140010723
19.74940457106026
19.79821512261762
19.79823089344919
19.79827785543259
19.798354982737703
19.79846064729168
19.79859272976305
19.798748759644546
19.798926062357587
19.79912190713884
19.79933363079723
19.799558738438797
19.799794963769184
19.80004028973121
19.800292933969402
19.80055129733541
19.800813883197367
19.801079199962736
19.801345653093783
19.801611439150033
19.80187445305431
19.80213221920161
19.802381858355968
19.802620093050486
19.802843305473687
19.803047639713327
19.80322915129568
19.803383992270756
19.80350861738389
19.803599994689623
19.803655798799603
19.8036745666349
19.843297511481783
19.84331019494674
19.843347973004214
19.843410047874848
19.84349515104563
19.843601626542437
19.84372753667408
19.843870773532636
19.844029172160212
19.844200605931267
19.844383065345777
19.84457470615798
19.844773867187534
19.844979061085333
19.84518893621475
19.845402215610424
19.84561762285234
19.845833799785893
19.846049226121103
19.84626214980828
19.846470536502643
19.84667204734003
19.846864046630365
19.847043650083876
19.847207806358135
19.84735341385121
19.847477463188632
19.847577194184908
19.84765025483088
19.84769484615278
19.847709838353584
19.87945719036253
19.87946725465206
19.879497238183784
19.879546527231703
19.879614144321703
19.87969881019195
19.87979902287724
19.87991314134024
19.88003947104163
19.88017633644596
19.88032214168379
19.880475408206905
19.880634789592918
19.88079906590741
19.880967115899693
19.881137871555573
19.88131026267415
19.881483155235493
19.881655291414503
19.8818252381519
19.88199135065747
19.882151757856764
19.882304370648313
19.882446920988748
19.882577025680817
19.882692276177703
19.882790346842526
19.88286911311303
19.882926770366716
19.8829619416045
19.882973763417752
19.908077341788726
19.908085230819253
19.908108738649553
19.908147398018993
19.90820046360833
19.908266957737702
19.908345728956064
19.90843551412247
19.908535002377945
19.908642889564142
19.908757924269704
19.908878936797905
19.909004851135574
19.909134681708856
19.90926751340078
19.909402468222723
19.909538664526856
19.909675171567848
19.909810965449388
19.909944891720023
19.91007563942105
19.910201731844893
19.91032153439751
19.910433285587818
19.91053514610631
19.9106252669269
19.910701870572645
19.910763339127776
19.910808302264655
19.910835716608418
19.910844928871587
19.930422050878438
19.930428170169233
19.930446407991322
19.930476411884595
19.930517618857216
19.930569288804058
19.930630547524903
19.930700432365995
19.930777939553746
19.930862064577333
19.93095183671455
19.93104634100416
19.93114472772183
19.931246210691224
19.931350053132366
19.93145554356483
19.931561966227594
19.93166856806589
19.931774526847462
19.931878924353597
19.931980728207677
19.93207878623871
19.93217183348423
19.932258516336173
19.932337429782834
19.932407168438655
19.932466386897456
19.932513864653828
19.932548570719234
19.932569721640892
19.93257682751617
19.947609796175037
19.947614505526072
19.94762854373236
19.94765164683634
19.94768339264628
19.94772322499947
19.94777048511285
19.947824444870122
19.9478843415512
19.947949407524384
19.948018895884402
19.94809209693793
19.948168345593107
19.94824702065171
19.948327534927365
19.948409318042646
19.948491795253517
19.94857436376855
19.948656369969548
19.948737090449857
19.948815719480997
19.948891365769384
19.94896305844112
19.949029765611915
19.949090422346316
19.949143968537225
19.949189393346696
19.949225782721406
19.94925236648321
19.94926856045972
19.949273999809368
19.960599359502744
19.960602971275616
19.960613739570892
19.960631467356734
19.960655839070476
19.960686438164213
19.960722769857806
19.96076428530441
19.960810406950486
19.960860550250718
19.960914142600934
19.96097063563031
19.96102951091396
19.9610902798614
19.96115247690119
19.96121564731889
19.961279332247262
19.961343051842512
19.961406289169094
19.96146847693055
19.961528988942646
19.961587138439224
19.96164218306118
19.961693339031836
19.96173980201987
19.961780775110235
19.961815501374666
19.961843298500938
19.961863592981437
19.96187595060064
19.961880100493477
19.970186493744954
19.970189275332395
19.97019756989393
19.970211229757
19.970230018098928
19.97025362166907
19.97028166734668
19.970313739724773
19.970349399671562
19.970388200240148
19.970429700677872
19.970473475606163
19.97051911943877
19.970566246615977
19.970614486939773
19.970663477006646
19.970712849605896
19.970762221805217
19.97081118359097
19.9708592886273
19.970906048510784
19.97095093205041
19.97099336938311
19.971032762805123
19.97106850236688
19.97109998657344
19.971126646315874
19.971147970180382
19.971163529346804
19.97117299972427
19.971176179380464
19.977006885852408
19.97700906512774
19.977015564695314
19.977026271940613
19.977041006025367
19.977059527261883
19.97708154935857
19.97710675241839
19.97713479674168
19.97716533466445
19.97719802108815
19.977232520442143
19.977268510150115
19.977305681053725
19.97734373420563
19.977382374775477
19.97742130448808
19.977460213098126
19.97749877030367
19.97753661925813
19.977573372692746
19.977608612787016
19.977641894583826
19.977672754389424
19.977700721612894
19.977725334331538
19.977746157160485
19.977762800054528
19.977774936743455
19.97778232107456
19.977784799853662
19.981542973664403
19.981544746376784
19.98155003417953
19.981558747729096
19.98157074337916
19.981585830373728
19.981603780276338
19.9816243369727
19.981647227352795
19.98167217047583
19.98169888580152
19.981727098678547
19.981756543163453
19.981786962540184
19.98181810704312
19.981849729360466
19.981881579039033
19.98191339615365
19.981944905335478
19.98197581105146
19.982005794908826
19.98203451586408
19.982061613132185
19.982086712945453
19.982109437895712
19.982129419108556
19.98214631013033
19.9821598014704
19.982169634817353
19.982175615608057
19.98217762288516
19.98413200993489
19.984133548274045
19.984138137470858
19.98414570144139
19.98415611774297
19.984169223540704
19.984184823450583
19.984202697854023
19.984222611817746
19.984244322747237
19.984267587313525
19.98429216610135
19.984317826053026
19.984344341030926
19.984371490054873
19.984399053697643
19.984426809588875
19.984454527312383
19.984481963615263
19.984508858670278
19.984534934030137
19.984559893008388
19.984583423284345
19.984605202716516
19.98462490726086
19.98464222122046
19.984656848879922
19.984668526644793
19.984677034881848
19.984682208366443
19.984683944464454
19.984973085877606
19.98497454769573
19.98497890879418
19.984986097392227
19.984995997930646
19.985008456642763
19.98502328888589
19.98504028691139
19.98505922821507
19.98507988270238
19.985102019192613
19.985125409794307
19.98514983222649
19.985175070393108
19.98520091278473
19.985227149160426
19.985253566404786
19.985279943819812
19.98530604871314
19.985331632975203
19.985356431240593
19.98538016132094
19.985402526708697
19.985423222081995
19.985441940760538
19.98545838433222
19.985472273559285
19.985483359741856
19.985491435791953
19.985496345997
19.98549799366202
