# vtk DataFile Version 2.0
Unstructured Grid Example
ASCII
DATASET UNSTRUCTURED_GRID

POINTS 961 float
0.400000004 0.01999999956 0
0.3866666556 0.01999999956 0
0.3733333348 0.01999999956 0
0.3600000144 0.01999999956 0
0.346666664 0.01999999956 0
0.3333333432 0.01999999956 0
0.3199999928 0.01999999956 0
0.3066666724 0.01999999956 0
0.293333322 0.01999999956 0
0.2800000012 0.01999999956 0
0.2666666804 0.01999999956 0
0.25333333 0.01999999956 0
0.2399999948 0.01999999956 0
0.226666674 0.01999999956 0
0.2133333384 0.01999999956 0
0.2000000028 0.01999999956 0
0.1866666676 0.01999999956 0
0.173333332 0.01999999956 0
0.1599999964 0.01999999956 0
0.1466666608 0.01999999956 0
0.1333333404 0.01999999956 0
0.1199999972 0.01999999956 0
0.1066666692 0.01999999956 0
0.0933333336 0.01999999956 0
0.0799999984 0.01999999956 0
0.06666667 0.01999999956 0
0.0533333348 0.01999999956 0
0.03999999912 0.01999999956 0
0.02666666732 0.01999999956 0
0.01333333364 0.01999999956 0
0.0 0.01999999956 0
0.400000004 0.00666666684 0
0.3866666556 0.00666666684 0
0.3733333348 0.00666666684 0
0.3600000144 0.00666666684 0
0.346666664 0.00666666684 0
0.3333333432 0.00666666684 0
0.3199999928 0.00666666684 0
0.3066666724 0.00666666684 0
0.293333322 0.00666666684 0
0.2800000012 0.00666666684 0
0.2666666804 0.00666666684 0
0.25333333 0.00666666684 0
0.2399999948 0.00666666684 0
0.226666674 0.00666666684 0
0.2133333384 0.00666666684 0
0.2000000028 0.00666666684 0
0.1866666676 0.00666666684 0
0.173333332 0.00666666684 0
0.1599999964 0.00666666684 0
0.1466666608 0.00666666684 0
0.1333333404 0.00666666684 0
0.1199999972 0.00666666684 0
0.1066666692 0.00666666684 0
0.0933333336 0.00666666684 0
0.0799999984 0.00666666684 0
0.06666667 0.00666666684 0
0.0533333348 0.00666666684 0
0.03999999912 0.00666666684 0
0.02666666732 0.00666666684 0
0.01333333364 0.00666666684 0
0.0 0.00666666684 0
0.400000004 -0.00666666684 0
0.3866666556 -0.00666666684 0
0.3733333348 -0.00666666684 0
0.3600000144 -0.00666666684 0
0.346666664 -0.00666666684 0
0.3333333432 -0.00666666684 0
0.3199999928 -0.00666666684 0
0.3066666724 -0.00666666684 0
0.293333322 -0.00666666684 0
0.2800000012 -0.00666666684 0
0.2666666804 -0.00666666684 0
0.25333333 -0.00666666684 0
0.2399999948 -0.00666666684 0
0.226666674 -0.00666666684 0
0.2133333384 -0.00666666684 0
0.2000000028 -0.00666666684 0
0.1866666676 -0.00666666684 0
0.173333332 -0.00666666684 0
0.1599999964 -0.00666666684 0
0.1466666608 -0.00666666684 0
0.1333333404 -0.00666666684 0
0.1199999972 -0.00666666684 0
0.1066666692 -0.00666666684 0
0.0933333336 -0.00666666684 0
0.0799999984 -0.00666666684 0
0.06666667 -0.00666666684 0
0.0533333348 -0.00666666684 0
0.03999999912 -0.00666666684 0
0.02666666732 -0.00666666684 0
0.01333333364 -0.00666666684 0
0.0 -0.00666666684 0
0.400000004 -0.01999999956 0
0.3866666556 -0.01999999956 0
0.3733333348 -0.01999999956 0
0.3600000144 -0.01999999956 0
0.346666664 -0.01999999956 0
0.3333333432 -0.01999999956 0
0.3199999928 -0.01999999956 0
0.3066666724 -0.01999999956 0
0.293333322 -0.01999999956 0
0.2800000012 -0.01999999956 0
0.2666666804 -0.01999999956 0
0.25333333 -0.01999999956 0
0.2399999948 -0.01999999956 0
0.226666674 -0.01999999956 0
0.2133333384 -0.01999999956 0
0.2000000028 -0.01999999956 0
0.1866666676 -0.01999999956 0
0.173333332 -0.01999999956 0
0.1599999964 -0.01999999956 0
0.1466666608 -0.01999999956 0
0.1333333404 -0.01999999956 0
0.1199999972 -0.01999999956 0
0.1066666692 -0.01999999956 0
0.0933333336 -0.01999999956 0
0.0799999984 -0.01999999956 0
0.06666667 -0.01999999956 0
0.0533333348 -0.01999999956 0
0.03999999912 -0.01999999956 0
0.02666666732 -0.01999999956 0
0.01333333364 -0.01999999956 0
0.0 -0.01999999956 0
0.400000004 -0.03333333508 0
0.3866666556 -0.03333333508 0
0.3733333348 -0.03333333508 0
0.3600000144 -0.03333333508 0
0.346666664 -0.03333333508 0
0.3333333432 -0.03333333508 0
0.3199999928 -0.03333333508 0
0.3066666724 -0.03333333508 0
0.293333322 -0.03333333508 0
0.2800000012 -0.03333333508 0
0.2666666804 -0.03333333508 0
0.25333333 -0.03333333508 0
0.2399999948 -0.03333333508 0
0.226666674 -0.03333333508 0
0.2133333384 -0.03333333508 0
0.2000000028 -0.03333333508 0
0.1866666676 -0.03333333508 0
0.173333332 -0.03333333508 0
0.1599999964 -0.03333333508 0
0.1466666608 -0.03333333508 0
0.1333333404 -0.03333333508 0
0.1199999972 -0.03333333508 0
0.1066666692 -0.03333333508 0
0.0933333336 -0.03333333508 0
0.0799999984 -0.03333333508 0
0.06666667 -0.03333333508 0
0.0533333348 -0.03333333508 0
0.03999999912 -0.03333333508 0
0.02666666732 -0.03333333508 0
0.01333333364 -0.03333333508 0
0.0 -0.03333333508 0
0.400000004 -0.0466666668 0
0.3866666556 -0.0466666668 0
0.3733333348 -0.0466666668 0
0.3600000144 -0.0466666668 0
0.346666664 -0.0466666668 0
0.3333333432 -0.0466666668 0
0.3199999928 -0.0466666668 0
0.3066666724 -0.0466666668 0
0.293333322 -0.0466666668 0
0.2800000012 -0.0466666668 0
0.2666666804 -0.0466666668 0
0.25333333 -0.0466666668 0
0.2399999948 -0.0466666668 0
0.226666674 -0.0466666668 0
0.2133333384 -0.0466666668 0
0.2000000028 -0.0466666668 0
0.1866666676 -0.0466666668 0
0.173333332 -0.0466666668 0
0.1599999964 -0.0466666668 0
0.1466666608 -0.0466666668 0
0.1333333404 -0.0466666668 0
0.1199999972 -0.0466666668 0
0.1066666692 -0.0466666668 0
0.0933333336 -0.0466666668 0
0.0799999984 -0.0466666668 0
0.06666667 -0.0466666668 0
0.0533333348 -0.0466666668 0
0.03999999912 -0.0466666668 0
0.02666666732 -0.0466666668 0
0.01333333364 -0.0466666668 0
0.0 -0.0466666668 0
0.400000004 -0.0599999988 0
0.3866666556 -0.0599999988 0
0.3733333348 -0.0599999988 0
0.3600000144 -0.0599999988 0
0.346666664 -0.0599999988 0
0.3333333432 -0.0599999988 0
0.3199999928 -0.0599999988 0
0.3066666724 -0.0599999988 0
0.293333322 -0.0599999988 0
0.2800000012 -0.0599999988 0
0.2666666804 -0.0599999988 0
0.25333333 -0.0599999988 0
0.2399999948 -0.0599999988 0
0.226666674 -0.0599999988 0
0.2133333384 -0.0599999988 0
0.2000000028 -0.0599999988 0
0.1866666676 -0.0599999988 0
0.173333332 -0.0599999988 0
0.1599999964 -0.0599999988 0
0.1466666608 -0.0599999988 0
0.1333333404 -0.0599999988 0
0.1199999972 -0.0599999988 0
0.1066666692 -0.0599999988 0
0.0933333336 -0.0599999988 0
0.0799999984 -0.0599999988 0
0.06666667 -0.0599999988 0
0.0533333348 -0.0599999988 0
0.03999999912 -0.0599999988 0
0.02666666732 -0.0599999988 0
0.01333333364 -0.0599999988 0
0.0 -0.0599999988 0
0.400000004 -0.0733333304 0
0.3866666556 -0.0733333304 0
0.3733333348 -0.0733333304 0
0.3600000144 -0.0733333304 0
0.346666664 -0.0733333304 0
0.3333333432 -0.0733333304 0
0.3199999928 -0.0733333304 0
0.3066666724 -0.0733333304 0
0.293333322 -0.0733333304 0
0.2800000012 -0.0733333304 0
0.2666666804 -0.0733333304 0
0.25333333 -0.0733333304 0
0.2399999948 -0.0733333304 0
0.226666674 -0.0733333304 0
0.2133333384 -0.0733333304 0
0.2000000028 -0.0733333304 0
0.1866666676 -0.0733333304 0
0.173333332 -0.0733333304 0
0.1599999964 -0.0733333304 0
0.1466666608 -0.0733333304 0
0.1333333404 -0.0733333304 0
0.1199999972 -0.0733333304 0
0.1066666692 -0.0733333304 0
0.0933333336 -0.0733333304 0
0.0799999984 -0.0733333304 0
0.06666667 -0.0733333304 0
0.0533333348 -0.0733333304 0
0.03999999912 -0.0733333304 0
0.02666666732 -0.0733333304 0
0.01333333364 -0.0733333304 0
0.0 -0.0733333304 0
0.400000004 -0.086666666 0
0.3866666556 -0.086666666 0
0.3733333348 -0.086666666 0
0.3600000144 -0.086666666 0
0.346666664 -0.086666666 0
0.3333333432 -0.086666666 0
0.3199999928 -0.086666666 0
0.3066666724 -0.086666666 0
0.293333322 -0.086666666 0
0.2800000012 -0.086666666 0
0.2666666804 -0.086666666 0
0.25333333 -0.086666666 0
0.2399999948 -0.086666666 0
0.226666674 -0.086666666 0
0.2133333384 -0.086666666 0
0.2000000028 -0.086666666 0
0.1866666676 -0.086666666 0
0.173333332 -0.086666666 0
0.1599999964 -0.086666666 0
0.1466666608 -0.086666666 0
0.1333333404 -0.086666666 0
0.1199999972 -0.086666666 0
0.1066666692 -0.086666666 0
0.0933333336 -0.086666666 0
0.0799999984 -0.086666666 0
0.06666667 -0.086666666 0
0.0533333348 -0.086666666 0
0.03999999912 -0.086666666 0
0.02666666732 -0.086666666 0
0.01333333364 -0.086666666 0
0.0 -0.086666666 0
0.400000004 -0.1000000016 0
0.3866666556 -0.1000000016 0
0.3733333348 -0.1000000016 0
0.3600000144 -0.1000000016 0
0.346666664 -0.1000000016 0
0.3333333432 -0.1000000016 0
0.3199999928 -0.1000000016 0
0.3066666724 -0.1000000016 0
0.293333322 -0.1000000016 0
0.2800000012 -0.1000000016 0
0.2666666804 -0.1000000016 0
0.25333333 -0.1000000016 0
0.2399999948 -0.1000000016 0
0.226666674 -0.1000000016 0
0.2133333384 -0.1000000016 0
0.2000000028 -0.1000000016 0
0.1866666676 -0.1000000016 0
0.173333332 -0.1000000016 0
0.1599999964 -0.1000000016 0
0.1466666608 -0.1000000016 0
0.1333333404 -0.1000000016 0
0.1199999972 -0.1000000016 0
0.1066666692 -0.1000000016 0
0.0933333336 -0.1000000016 0
0.0799999984 -0.1000000016 0
0.06666667 -0.1000000016 0
0.0533333348 -0.1000000016 0
0.03999999912 -0.1000000016 0
0.02666666732 -0.1000000016 0
0.01333333364 -0.1000000016 0
0.0 -0.1000000016 0
0.400000004 -0.1133333372 0
0.3866666556 -0.1133333372 0
0.3733333348 -0.1133333372 0
0.3600000144 -0.1133333372 0
0.346666664 -0.1133333372 0
0.3333333432 -0.1133333372 0
0.3199999928 -0.1133333372 0
0.3066666724 -0.1133333372 0
0.293333322 -0.1133333372 0
0.2800000012 -0.1133333372 0
0.2666666804 -0.1133333372 0
0.25333333 -0.1133333372 0
0.2399999948 -0.1133333372 0
0.226666674 -0.1133333372 0
0.2133333384 -0.1133333372 0
0.2000000028 -0.1133333372 0
0.1866666676 -0.1133333372 0
0.173333332 -0.1133333372 0
0.1599999964 -0.1133333372 0
0.1466666608 -0.1133333372 0
0.1333333404 -0.1133333372 0
0.1199999972 -0.1133333372 0
0.1066666692 -0.1133333372 0
0.0933333336 -0.1133333372 0
0.0799999984 -0.1133333372 0
0.06666667 -0.1133333372 0
0.0533333348 -0.1133333372 0
0.03999999912 -0.1133333372 0
0.02666666732 -0.1133333372 0
0.01333333364 -0.1133333372 0
0.0 -0.1133333372 0
0.400000004 -0.1266666652 0
0.3866666556 -0.1266666652 0
0.3733333348 -0.1266666652 0
[...]
POINT_DATA 961
SCALARS Temp float 1
LOOKUP_TABLE default
0.7279389740754406
0.7570130911919813
0.7778777433830053
0.7930484262418449
0.8041641483955996
0.8123488144873721
0.8184025743399217
0.8229013447795022
0.8262643010491526
0.8287985773919179
0.8307318870407358
0.8322351410135818
0.8334389508670121
0.834446472217731
0.835342987803792
0.8362035095727608
0.8370997400557448
0.8381064716768515
0.8393083095852009
0.8408073627028373
0.8427326102797461
0.8452522334229502
0.8485893341081575
0.8530442692110327
0.859024634378088
0.8670878164706375
0.8780016183468747
0.8928329516413814
0.9130829335927384
0.9409301201478518
0.9798302506787532
0.7683257255364703
0.7968349491950716
0.8174755006771356
0.8325631428304769
0.8436406966614605
0.8518096955334451
0.857858736826691
0.8623582391393455
0.865724504673116
0.8682631727186341
0.8702011889407926
0.8717091032508886
0.8729173994062311
0.8739292302256454
0.8748299451202683
0.875694663602929
0.8765952106831559
0.877606500616211
0.8788132413501655
0.8803175985832056
0.882248519553666
0.8847739827246097
0.8881165930457122
0.892575666614592
0.8985567839452159
0.9066134931145147
0.9175062206570028
0.9322866308638994
0.9524240955091429
0.9799873643459798
1.0179728567181985
2.6591957188337405
2.6634312268357396
2.6752357083901126
2.6861230228883626
2.695125995117767
2.7022890633883803
2.707897600234398
2.7122596774105086
2.7156485566519555
2.718291035277139
2.7203706009393422
2.722034781955305
2.7234031134468797
2.724574588004267
2.72563428636402
2.7266593062344686
2.7277242762694036
2.7289067638136673
2.730292868617985
2.7319833501273156
2.734100630482226
2.73679690510958
2.7402635007953275
2.7447411134333284
2.750529326973821
2.7579905330419705
2.767534217421009
2.7795398119094052
2.7940657725549887
2.8098116728034985
2.8154646179185163
4.5265005163100565
4.5288119129079085
4.534484976815747
4.541573698363329
4.548294906651881
4.554122081101907
4.5589696638000925
4.562919203102666
4.566105571298527
4.568670910747014
4.570747075408615
4.572450384366647
4.573881844395916
4.575129725713768
4.576273052125316
4.577385428405982
4.5785390030793
4.579808508248537
4.58127540892014
4.583032172852282
4.585186569985195
4.5878657019171865
4.591218879123211
4.5954175498415495
4.60064799869185
4.6070875811514105
4.614843127568854
4.623798721056839
4.633249441444611
4.640815015909993
4.643897469321408
6.3882900904910915
6.389520195205687
6.392844662502237
6.397345913834776
6.402139429625172
6.40664351140946
6.410618734314358
6.414008559301921
6.416845560612025
6.4192006144315545
6.421157267944407
6.422799547169202
6.424206979210589
6.425453447269425
6.426608028696973
6.427736872242362
6.42890561115166
6.430182001421134
6.431638584473981
6.43335513919388
6.435420542754151
6.437933364336762
6.440999848878745
6.444726943976781
6.449205745742237
6.454476987390986
6.460463103385189
6.466842740684645
6.472838251107186
6.477268189097851
6.4789076422088145
8.246751585737595
8.247500813856027
8.24957391971573
8.252542057912255
8.25590889265834
8.25927849038177
8.262409072435695
8.265191538657207
8.267600667270191
8.269658283974648
8.271409931511105
8.27291131428169
8.274221104271229
8.275397666851063
8.27649809466081
8.27757858460484
8.278695551665841
8.279907041695274
8.281274106237053
8.282861764223988
8.28473902988697
8.286977214727823
8.289645155477626
8.292799337102391
8.296465556996145
8.300607528857798
8.305077625552384
8.30955155701522
8.313499731024947
8.316258930970006
8.317256368662388
10.102972509810954
10.103449690060152
10.104794984947821
10.106783708930504
10.109134988850494
10.111592286051827
10.11396954733637
10.116157710432905
10.11810966822442
10.119820035660972
10.121308706575117
10.122609467336241
10.12376292900926
10.124812594453667
10.125802995515883
10.126779137324357
10.127786694693379
10.128872511027875
10.13008502464918
10.131474212340153
10.133090526172566
10.134982111237804
10.137189245767308
10.139734693247975
10.142608308845377
10.145744887030698
10.148997083008018
10.152115186549752
10.154755808652963
10.156543388729231
10.157177658686527
11.957432232057029
11.957739585817198
11.958615688895605
11.95993791553252
11.961544298307865
11.96327477878846
11.965000216892161
11.96663371335184
11.968128218666754
11.969467662253987
11.970657247247248
11.971715467703653
11.97266847033711
11.973546500466533
11.974381896699409
11.975208141763861
11.976059548505631
11.976971200656354
11.977978812863787
11.979118146840687
11.980423548724033
11.981925076198982
11.983643532790314
11.985582788780507
11.987718980756444
11.9899874047654
11.992270619616196
11.994395135090645
11.996146514636298
11.997308023031682
11.997715672712037
13.810368810894706
13.810558514090735
13.811103222835836
13.811936658340949
13.812968255445544
13.814103889953577
13.815262469230948
13.816384640755542
13.817434177144854
13.818394710476344
13.81926479222237
13.820053109981991
13.82077471850817
13.82144843415955
13.822095203280988
13.822737184076942
13.823397275214674
13.824098822931854
13.824865260357017
13.825719414178543
13.826682178003637
13.827770221206617
13.828992370616547
13.830344483784751
13.831802969213092
13.833318090293622
13.834809568595185
13.836168349595534
13.8372682163474
13.837987883377854
13.83823865324759
15.661898213926865
15.661997428666961
15.66228389711152
15.662726936073106
15.663283709086075
15.663908259439758
15.664559281467152
15.665204830424752
15.665823819210974
15.666405149195965
15.666945709883198
15.66744815282123
15.66791897525393
15.66836709571808
15.668802888505862
15.669237575811326
15.669682852070991
15.670150599614978
15.670652563526396
15.671199843934351
15.671802051785601
15.67246597458358
15.673193608308175
15.67397955656606
15.67480801275907
15.675650037414929
15.676462380494241
15.67718943455404
15.67776951640055
15.67814521258543
15.678275431542874
17.51207599701789
17.512097000536176
17.512158729295763
17.512257573309352
17.512388224387998
17.512544510527622
17.512720219884983
17.512909738793176
17.51310844147757
17.513312832531092
17.513520517776684
17.51373006621857
17.513940827339468
17.51415274487686
17.514366180404707
17.514581752530418
17.514800190636613
17.51502219118923
17.515248267097434
17.515478579228507
17.51571274125499
17.51594959688872
17.51618697274141
17.516421441366756
17.516648137842896
17.51686071688087
17.517051546564144
17.5172122223397
17.51733442123747
17.517410997571382
17.51743709717547
17.615304589588618
17.6153219484909
17.615373156088822
17.615455742325672
17.615566009124798
17.615699540472118
17.615851734314997
17.616018248534697
17.616195313325072
17.616379889203305
17.616569705033633
17.616763204108885
17.6169594389309
17.617157945531673
17.617358609684523
17.617561533868788
17.61776690887215
17.61797488398376
17.61818543215368
17.618398205462196
17.61861237854252
17.618826484876063
17.61903825343232
17.61924447730727
17.619440944812773
17.619622488594523
17.61978320114533
17.619916847505433
17.620017463578392
17.620080063158237
17.62010131959314
17.718425990920956
17.718440624567776
17.718483917521553
17.718554129158164
17.71864861524912
17.718764149155565
17.718897271418786
17.719044600421558
17.719203071562895
17.719370080268355
17.719543544344685
17.719721894904474
17.719904020356775
17.720089184876016
17.720276930450225
17.720466971450023
17.720659087858483
17.72085301484556
17.72104832899561
17.72124433064925
17.721439923773204
17.721633500657397
17.7218228391155
17.722005037982743
17.722176509518704
17.722333062731163
17.7224700995981
17.722582931594218
17.72266719775575
17.722719329328307
17.722736979569913
17.82144536568672
17.82145791203585
17.821495113599767
17.821555710281523
17.82163776452149
17.82173886886921
17.82185637988127
17.821987635197885
17.822130132839575
17.822281650147904
17.82244030969026
17.822604591867666
17.822773308623226
17.822945552580485
17.823120627348334
17.82329796675893
17.82347704978708
17.823657310887484
17.823838048329534
17.82401833234202
17.824196916292706
17.82437215854624
17.82454196121009
17.82470374567271
17.824854474761914
17.824990741972854
17.825108935989906
17.825205478451306
17.825277117345905
17.825321237988828
17.82533614137102
17.92436658647245
17.924377501531417
17.924409923522195
17.92446291675727
17.92453502756473
17.924624421526538
17.9247290426596
17.924846766057293
17.924975531121767
17.925113436387242
17.925258799982593
17.925410181103295
17.925566370898938
17.925726362269234
17.925889301594786
17.92605442867573
17.926221011360013
17.926388275524772
17.926555334046622
17.92672111765651
17.926884311469678
17.927043304177044
17.92719615424236
17.92734058814858
17.927474034684685
17.927593707602917
17.927696738103766
17.927780351944165
17.92784207695011
17.92787995482354
17.92789272575365
18.027192576860372
18.0272021956093
18.02723080700459
18.027277698974547
18.02734175524879
18.027421547948855
18.027515447688035
18.02762173176317
18.027738682982566
18.02786466359514
18.027998167265377
18.0281378427617
18.028282494338534
18.028431065174804
18.028582604959386
18.028736226502495
18.02889105720122
18.029046186270982
18.029200611649177
18.029353189742306
18.02950259167624
18.029647272003096
18.029785452510886
18.02991513251232
18.03003412600043
18.03014013329537
18.03023084556874
18.030304076577202
18.030357910848277
18.030390850370626
18.030401939686644
18.126629277807382
18.12663784827825
18.126663369612494
18.126705286840853
18.126762723011954
18.12683454279733
18.126919429820944
18.12701596402316
18.12712269515664
18.12723819978228
18.127361124495792
18.12749020867204
18.12762428980438
18.12776229583799
18.127903224306053
18.128046111993513
18.128190000188564
18.128333896320115
18.12847673570624
18.128617346408134
18.12875442038693
18.128886495840362
18.129011952017308
18.129129025242072
18.12923584445217
18.129330491207412
18.12941108136601
18.129475863326707
18.129523324968144
18.129552296855046
18.12956203865868
18.21935878617844
18.219366494592226
18.219389468766302
18.219427266077155
18.21947918211185
18.21954429507838
18.21962152092247
18.219709669165418
18.219807497866732
18.21991375737927
18.220027225727566
18.220146729126235
18.22027114968583
18.220399423491934
18.220530528067236
18.220663462041095
18.22079722133989
18.220930772423014
18.221063025889478
18.221192813057552
18.22131886814419
18.221439819949467
18.221554193354724
18.22166042749764
18.22175690781369
18.22184201541399
18.22191419071881
18.221972007109034
18.222014248954103
18.222039985315547
18.222048630714248
18.305348770623258
18.30535576258034
18.30537661560438
18.305410968624287
18.305458243357446
18.305517675795315
18.30558835606793
18.30566926915407
18.3057593363257
18.305857448771576
18.305962496401353
18.306073385819506
18.306189048973767
18.306308444916997
18.30643055322311
18.306554361200213
18.306678848550607
18.30680296968511
18.30692563654244
18.30704570405834
18.307161960348118
18.307273124695268
18.30737785296659
18.307474756002968
18.30756242765161
18.30763948508767
18.30770461847867
18.30775664661093
18.307794574489822
18.3078176467448
18.307825391074413
18.38456932650646
18.384575718306813
18.384594791561824
18.38462624520672
18.384669594342007
18.38472419289162
18.3847892628753
18.384863924423236
18.384947227367437
18.385038177217716
18.385135758668476
18.385238951162407
18.38534673773473
18.385458109114843
18.385572061370432
18.385687588729958
18.385803674670566
18.38591928117929
18.386033338571924
18.386144737569445
18.386252325199276
18.386354906960886
18.386451254417974
18.386540122839243
18.386620275371143
18.38669051593778
18.386749728213545
18.38679691802826
18.386831256419864
18.386852118898304
18.386859117009685
18.456992916411842
18.456998802909307
18.45701637563166
18.457045378205812
18.4570853956692
18.457135871025976
18.457196127091795
18.457265388905505
18.457342808135923
18.457427483335014
18.457518479278324
18.457614840432143
18.457715599630234
18.45781978364303
18.457926413803346
18.45803450294923
18.458143051307943
18.458251040973398
18.45835743094293
18.458461154021442
18.458561116746278
18.458656204262873
18.458745289021415
18.458827247253073
18.458900979715793
18.458965438652825
18.45901965863599
18.459062789254865
18.459094127733213
18.45911314823191
18.459119525153408
18.522594334723863
18.522599794869457
18.52261610008094
18.52264302762382
18.52268021544055
18.522727174447148
18.522783305126946
18.522847914512578
18.52292023534911
18.522999442090597
18.52308466701386
18.5231750119475
18.523269556626722
18.523367365165228
18.523467488766386
18.52356896565834
18.52367082050219
18.523772062721832
18.523871685366153
18.52396866548436
18.524061966837674
18.524150546486187
18.524233363944173
18.524309396380502
18.524377656456394
18.52443721459808
18.5244872236835
18.524526944575314
18.524555771200966
18.524573252772644
18.524579111282783
18.581351079394977
18.58135618021148
18.581371416180076
18.581396590101466
18.581431380263023
18.581475349737765
18.58152795924217
18.58158858022653
18.581656510208195
18.58173098561551
18.581811195430213
18.581896291516898
18.581985396612694
18.582077611336686
18.582172018346068
18.582267684419257
18.582363662417112
18.582458992415035
18.582552703326026
18.58264381573374
18.58273134650107
18.582814316397446
18.582891759338363
18.58296273635685
18.583026351043127
18.583081768159847
18.583128233679084
18.58316509503339
18.583191820724757
18.58320801746838
18.583213443564237
18.63324260293297
18.633247402418164
18.63326174105493
18.633285441138092
18.633318211882855
18.633359656603545
18.63340928290079
18.633466512957355
18.633530696073546
18.63360111918625
18.63367701863377
18.633757589381382
18.633841992658127
18.633929363269882
18.634018814744735
18.63410944294007
18.634200329827017
18.634290546631213
18.634379157418707
18.634465223640895
18.63454781000967
18.634625992722512
18.634698868582493
18.634765567864246
18.634825267815824
18.634877208443438
18.634920709045993
18.634955184564443
18.634980161204112
18.634995289920184
18.635000356840976
18.678251277650162
18.67825582692639
18.67826942002072
18.67829189413269
18.678322982212418
18.67836231863519
18.67840944747681
18.678463830802702
18.678524859163723
18.678591860408673
18.678664110034802
18.67874083955668
18.67882124382782
18.67890448851059
18.67898971588881
18.679076049541926
18.679162599412624
18.67924846636573
18.679332747147818
18.679414540104503
18.679492951881677
18.6795671059644
18.679636151580173
18.679699275614222
18.679755714572426
18.679804768194376
18.679845813361233
18.67987831756648
18.679901851630774
18.67991610054424
18.679920871773884
18.716361463188356
18.716365808133972
18.716378792099164
18.71640026362493
18.71642997378113
18.7164675807762
18.716512656867163
18.71656469521408
18.71662311889682
18.716687288485456
18.716756511336335
18.716830049307138
18.716907125811687
18.716986933357006
18.7170686397983
18.71715139374881
18.71723433053538
18.717316577742494
18.717397261116343
18.717475511069757
18.717550469907774
18.717621300504778
18.717687194960636
18.717747385727872
18.717801156374414
18.717847853550268
18.717886898941213
18.717917800627767
18.717940163687096
18.71795369912987
18.717958230690883
18.747560236904704
18.74756441941276
18.747576918957357
18.747597592582398
18.74762620498055
18.747662432355966
18.74770586836937
18.747756029978177
18.747812365394914
18.7478742607661
18.747941048696227
18.74801201547428
18.748086407913064
18.748163440902474
18.748242303950843
18.748322167092418
18.748402187444636
18.74848151542235
18.74855930127785
18.748634702122608
18.74870688947459
18.74877505797327
18.748838433798575
18.748896285169103
18.748947932191733
18.74899275760357
18.749030217294482
18.74905985013747
18.749081287072997
18.74909425868634
18.749098600921133
18.771837004987706
18.771841063967496
18.771853195024214
18.77187326137382
18.771901037619898
18.771936213104986
18.771978397190573
18.772027124398484
18.772081861632294
18.77214201423478
18.772206933963858
18.77227592586734
18.772348254956913
18.772423153752975
18.77249982900545
18.77257746792772
18.772655245149693
18.772732329374062
18.772807890331475
18.772881106131003
18.77295117099659
18.77301730396973
18.77307875712637
18.773134825597467
18.773184856750447
18.773228260050452
18.77326451656692
18.773293187728513
18.773313923346862
18.77332646824858
18.773330667242803
18.789183400999985
18.789187373197798
18.789199245330366
18.78921888480195
18.7892460729533
18.78928050808193
18.789321810289252
18.78936952616769
18.789423135538513
18.789482057101768
18.78954565604731
18.789613250692785
18.78968411904132
18.789757506309655
18.789832631755786
18.789908695115393
18.78998488380093
18.7900603798335
18.790134367054467
18.790206038673535
18.790274605110188
18.79033930266707
18.79039940159445
18.790454215776563
18.790503111457983
18.790545516512417
18.790580929272615
18.790608926574194
18.79062917108113
18.79064141729812
18.790645516050354
18.7995936137902
18.799597534484807
18.79960925293191
18.799628638965025
18.7996554778371
18.799689473055032
18.799730250983057
18.799777365274103
18.7998303033341
18.79988849174085
18.79995130364671
18.800018065279865
18.800088062433115
18.80016054797813
18.8002347487488
18.800309872087585
18.800385113178066
18.80045966212683
18.8005327113134
18.800603463042975
18.80067113743913
18.80073498109219
18.800794275029254
18.800848344203093
18.8008965659539
18.80093837893699
18.800973291565477
18.801000889649067
18.801020843323236
18.801032912710596
18.80103695212523
18.803064066143307
18.80306796976313
18.803079637255955
18.8030989392515
18.803125662285733
18.803159511575554
18.803200115543426
18.80324703016632
18.80329974535134
18.80335769028001
18.80342024074297
18.80348672559673
18.803556433229584
18.803628619070594
18.80370251249019
18.8037773233813
18.803852249534025
18.80392648376504
18.803999221311223
18.804069667514785
18.80413704573149
18.804200605969136
18.804259632826014
18.80431345491421
18.804361453234698
18.804403069993654
18.804437816919172
18.804465282768376
18.804485140128286
18.80449715096353
18.804501170731577
