# vtk DataFile Version 2.0
Unstructured Grid Example
ASCII
DATASET UNSTRUCTURED_GRID

POINTS 961 float
0.400000004 0.01999999956 0
0.3866666556 0.01999999956 0
0.3733333348 0.01999999956 0
0.3600000144 0.01999999956 0
0.346666664 0.01999999956 0
0.3333333432 0.01999999956 0
0.3199999928 0.01999999956 0
0.3066666724 0.01999999956 0
0.293333322 0.01999999956 0
0.2800000012 0.01999999956 0
0.2666666804 0.01999999956 0
0.25333333 0.01999999956 0
0.2399999948 0.01999999956 0
0.226666674 0.01999999956 0
0.2133333384 0.01999999956 0
0.2000000028 0.01999999956 0
0.1866666676 0.01999999956 0
0.173333332 0.01999999956 0
0.1599999964 0.01999999956 0
0.1466666608 0.01999999956 0
0.1333333404 0.01999999956 0
0.1199999972 0.01999999956 0
0.1066666692 0.01999999956 0
0.0933333336 0.01999999956 0
0.0799999984 0.01999999956 0
0.06666667 0.01999999956 0
0.0533333348 0.01999999956 0
0.03999999912 0.01999999956 0
0.02666666732 0.01999999956 0
0.01333333364 0.01999999956 0
0.0 0.01999999956 0
0.400000004 0.00666666684 0
0.3866666556 0.00666666684 0
0.3733333348 0.00666666684 0
0.3600000144 0.00666666684 0
0.346666664 0.00666666684 0
0.3333333432 0.00666666684 0
0.3199999928 0.00666666684 0
0.3066666724 0.00666666684 0
0.293333322 0.00666666684 0
0.2800000012 0.00666666684 0
0.2666666804 0.00666666684 0
0.25333333 0.00666666684 0
0.2399999948 0.00666666684 0
0.226666674 0.00666666684 0
0.2133333384 0.00666666684 0
0.2000000028 0.00666666684 0
0.1866666676 0.00666666684 0
0.173333332 0.00666666684 0
0.1599999964 0.00666666684 0
0.1466666608 0.00666666684 0
0.1333333404 0.00666666684 0
0.1199999972 0.00666666684 0
0.1066666692 0.00666666684 0
0.0933333336 0.00666666684 0
0.0799999984 0.00666666684 0
0.06666667 0.00666666684 0
0.0533333348 0.00666666684 0
0.03999999912 0.00666666684 0
0.02666666732 0.00666666684 0
0.01333333364 0.00666666684 0
0.0 0.00666666684 0
0.400000004 -0.00666666684 0
0.3866666556 -0.00666666684 0
0.3733333348 -0.00666666684 0
0.3600000144 -0.00666666684 0
0.346666664 -0.00666666684 0
0.3333333432 -0.00666666684 0
0.3199999928 -0.00666666684 0
0.3066666724 -0.00666666684 0
0.293333322 -0.00666666684 0
0.2800000012 -0.00666666684 0
0.2666666804 -0.00666666684 0
0.25333333 -0.00666666684 0
0.2399999948 -0.00666666684 0
0.226666674 -0.00666666684 0
0.2133333384 -0.00666666684 0
0.2000000028 -0.00666666684 0
0.1866666676 -0.00666666684 0
0.173333332 -0.00666666684 0
0.1599999964 -0.00666666684 0
0.1466666608 -0.00666666684 0
0.1333333404 -0.00666666684 0
0.1199999972 -0.00666666684 0
0.1066666692 -0.00666666684 0
0.0933333336 -0.00666666684 0
0.0799999984 -0.00666666684 0
0.06666667 -0.00666666684 0
0.0533333348 -0.00666666684 0
0.03999999912 -0.00666666684 0
0.02666666732 -0.00666666684 0
0.01333333364 -0.00666666684 0
0.0 -0.00666666684 0
0.400000004 -0.01999999956 0
0.3866666556 -0.01999999956 0
0.3733333348 -0.01999999956 0
0.3600000144 -0.01999999956 0
0.346666664 -0.01999999956 0
0.3333333432 -0.01999999956 0
0.3199999928 -0.01999999956 0
0.3066666724 -0.01999999956 0
0.293333322 -0.01999999956 0
0.2800000012 -0.01999999956 0
0.2666666804 -0.01999999956 0
0.25333333 -0.01999999956 0
0.2399999948 -0.01999999956 0
0.226666674 -0.01999999956 0
0.2133333384 -0.01999999956 0
0.2000000028 -0.01999999956 0
0.1866666676 -0.01999999956 0
0.173333332 -0.01999999956 0
0.1599999964 -0.01999999956 0
0.1466666608 -0.01999999956 0
0.1333333404 -0.01999999956 0
0.1199999972 -0.01999999956 0
0.1066666692 -0.01999999956 0
0.0933333336 -0.01999999956 0
0.0799999984 -0.01999999956 0
0.06666667 -0.01999999956 0
0.0533333348 -0.01999999956 0
0.03999999912 -0.01999999956 0
0.02666666732 -0.01999999956 0
0.01333333364 -0.01999999956 0
0.0 -0.01999999956 0
0.400000004 -0.03333333508 0
0.3866666556 -0.03333333508 0
0.3733333348 -0.03333333508 0
0.3600000144 -0.03333333508 0
0.346666664 -0.03333333508 0
0.3333333432 -0.03333333508 0
0.3199999928 -0.03333333508 0
0.3066666724 -0.03333333508 0
0.293333322 -0.03333333508 0
0.2800000012 -0.03333333508 0
0.2666666804 -0.03333333508 0
0.25333333 -0.03333333508 0
0.2399999948 -0.03333333508 0
0.226666674 -0.03333333508 0
0.2133333384 -0.03333333508 0
0.2000000028 -0.03333333508 0
0.1866666676 -0.03333333508 0
0.173333332 -0.03333333508 0
0.1599999964 -0.03333333508 0
0.1466666608 -0.03333333508 0
0.1333333404 -0.03333333508 0
0.1199999972 -0.03333333508 0
0.1066666692 -0.03333333508 0
0.0933333336 -0.03333333508 0
0.0799999984 -0.03333333508 0
0.06666667 -0.03333333508 0
0.0533333348 -0.03333333508 0
0.03999999912 -0.03333333508 0
0.02666666732 -0.03333333508 0
0.01333333364 -0.03333333508 0
0.0 -0.03333333508 0
0.400000004 -0.0466666668 0
0.3866666556 -0.0466666668 0
0.3733333348 -0.0466666668 0
0.3600000144 -0.0466666668 0
0.346666664 -0.0466666668 0
0.3333333432 -0.0466666668 0
0.3199999928 -0.0466666668 0
0.3066666724 -0.0466666668 0
0.293333322 -0.0466666668 0
0.2800000012 -0.0466666668 0
0.2666666804 -0.0466666668 0
0.25333333 -0.0466666668 0
0.2399999948 -0.0466666668 0
0.226666674 -0.0466666668 0
0.2133333384 -0.0466666668 0
0.2000000028 -0.0466666668 0
0.1866666676 -0.0466666668 0
0.173333332 -0.0466666668 0
0.1599999964 -0.0466666668 0
0.1466666608 -0.0466666668 0
0.1333333404 -0.0466666668 0
0.1199999972 -0.0466666668 0
0.1066666692 -0.0466666668 0
0.0933333336 -0.0466666668 0
0.0799999984 -0.0466666668 0
0.06666667 -0.0466666668 0
0.0533333348 -0.0466666668 0
0.03999999912 -0.0466666668 0
0.02666666732 -0.0466666668 0
0.01333333364 -0.0466666668 0
0.0 -0.0466666668 0
0.400000004 -0.0599999988 0
0.3866666556 -0.0599999988 0
0.3733333348 -0.0599999988 0
0.3600000144 -0.0599999988 0
0.346666664 -0.0599999988 0
0.3333333432 -0.0599999988 0
0.3199999928 -0.0599999988 0
0.3066666724 -0.0599999988 0
0.293333322 -0.0599999988 0
0.2800000012 -0.0599999988 0
0.2666666804 -0.0599999988 0
0.25333333 -0.0599999988 0
0.2399999948 -0.0599999988 0
0.226666674 -0.0599999988 0
0.2133333384 -0.0599999988 0
0.2000000028 -0.0599999988 0
0.1866666676 -0.0599999988 0
0.173333332 -0.0599999988 0
0.1599999964 -0.0599999988 0
0.1466666608 -0.0599999988 0
0.1333333404 -0.0599999988 0
0.1199999972 -0.0599999988 0
0.1066666692 -0.0599999988 0
0.0933333336 -0.0599999988 0
0.0799999984 -0.0599999988 0
0.06666667 -0.0599999988 0
0.0533333348 -0.0599999988 0
0.03999999912 -0.0599999988 0
0.02666666732 -0.0599999988 0
0.01333333364 -0.0599999988 0
0.0 -0.0599999988 0
0.400000004 -0.0733333304 0
0.3866666556 -0.0733333304 0
0.3733333348 -0.0733333304 0
0.3600000144 -0.0733333304 0
0.346666664 -0.0733333304 0
0.3333333432 -0.0733333304 0
0.3199999928 -0.0733333304 0
0.3066666724 -0.0733333304 0
0.293333322 -0.0733333304 0
0.2800000012 -0.0733333304 0
0.2666666804 -0.0733333304 0
0.25333333 -0.0733333304 0
0.2399999948 -0.0733333304 0
0.226666674 -0.0733333304 0
0.2133333384 -0.0733333304 0
0.2000000028 -0.0733333304 0
0.1866666676 -0.0733333304 0
0.173333332 -0.0733333304 0
0.1599999964 -0.0733333304 0
0.1466666608 -0.0733333304 0
0.1333333404 -0.0733333304 0
0.1199999972 -0.0733333304 0
0.1066666692 -0.0733333304 0
0.0933333336 -0.0733333304 0
0.0799999984 -0.0733333304 0
0.06666667 -0.0733333304 0
0.0533333348 -0.0733333304 0
0.03999999912 -0.0733333304 0
0.02666666732 -0.0733333304 0
0.01333333364 -0.0733333304 0
0.0 -0.0733333304 0
0.400000004 -0.086666666 0
0.3866666556 -0.086666666 0
0.3733333348 -0.086666666 0
0.3600000144 -0.086666666 0
0.346666664 -0.086666666 0
0.3333333432 -0.086666666 0
0.3199999928 -0.086666666 0
0.3066666724 -0.086666666 0
0.293333322 -0.086666666 0
0.2800000012 -0.086666666 0
0.2666666804 -0.086666666 0
0.25333333 -0.086666666 0
0.2399999948 -0.086666666 0
0.226666674 -0.086666666 0
0.2133333384 -0.086666666 0
0.2000000028 -0.086666666 0
0.1866666676 -0.086666666 0
0.173333332 -0.086666666 0
0.1599999964 -0.086666666 0
0.1466666608 -0.086666666 0
0.1333333404 -0.086666666 0
0.1199999972 -0.086666666 0
0.1066666692 -0.086666666 0
0.0933333336 -0.086666666 0
0.0799999984 -0.086666666 0
0.06666667 -0.086666666 0
0.0533333348 -0.086666666 0
0.03999999912 -0.086666666 0
0.02666666732 -0.086666666 0
0.01333333364 -0.086666666 0
0.0 -0.086666666 0
0.400000004 -0.1000000016 0
0.3866666556 -0.1000000016 0
0.3733333348 -0.1000000016 0
0.3600000144 -0.1000000016 0
0.346666664 -0.1000000016 0
0.3333333432 -0.1000000016 0
0.3199999928 -0.1000000016 0
0.3066666724 -0.1000000016 0
0.293333322 -0.1000000016 0
0.2800000012 -0.1000000016 0
0.2666666804 -0.1000000016 0
0.25333333 -0.1000000016 0
0.2399999948 -0.1000000016 0
0.226666674 -0.1000000016 0
0.2133333384 -0.1000000016 0
0.2000000028 -0.1000000016 0
0.1866666676 -0.1000000016 0
0.173333332 -0.1000000016 0
0.1599999964 -0.1000000016 0
0.1466666608 -0.1000000016 0
0.1333333404 -0.1000000016 0
0.1199999972 -0.1000000016 0
0.1066666692 -0.1000000016 0
0.0933333336 -0.1000000016 0
0.0799999984 -0.1000000016 0
0.06666667 -0.1000000016 0
0.0533333348 -0.1000000016 0
0.03999999912 -0.1000000016 0
0.02666666732 -0.1000000016 0
0.01333333364 -0.1000000016 0
0.0 -0.1000000016 0
0.400000004 -0.1133333372 0
0.3866666556 -0.1133333372 0
0.3733333348 -0.1133333372 0
0.3600000144 -0.1133333372 0
0.346666664 -0.1133333372 0
0.3333333432 -0.1133333372 0
0.3199999928 -0.1133333372 0
0.3066666724 -0.1133333372 0
0.293333322 -0.1133333372 0
0.2800000012 -0.1133333372 0
0.2666666804 -0.1133333372 0
0.25333333 -0.1133333372 0
0.2399999948 -0.1133333372 0
0.226666674 -0.1133333372 0
0.2133333384 -0.1133333372 0
0.2000000028 -0.1133333372 0
0.1866666676 -0.1133333372 0
0.173333332 -0.1133333372 0
0.1599999964 -0.1133333372 0
0.1466666608 -0.1133333372 0
0.1333333404 -0.1133333372 0
0.1199999972 -0.1133333372 0
0.1066666692 -0.1133333372 0
0.0933333336 -0.1133333372 0
0.0799999984 -0.1133333372 0
0.06666667 -0.1133333372 0
0.0533333348 -0.1133333372 0
0.03999999912 -0.1133333372 0
0.02666666732 -0.1133333372 0
0.01333333364 -0.1133333372 0
0.0 -0.1133333372 0
0.400000004 -0.1266666652 0
0.3866666556 -0.1266666652 0
0.3733333348 -0.1266666652 0
[...]
POINT_DATA 961
SCALARS Temp float 1
LOOKUP_TABLE default
0.725958396159115
0.7549534057925511
0.7757612819619122
0.7908906771066659
0.8019761412171681
0.8101385215273418
0.8161757911711487
0.8206623002883627
0.8240160838473244
0.8265434406327189
0.8284714644980574
0.8299706016283794
0.8311711083971914
0.8321758599436713
0.8330699071585754
0.8339280580854616
0.8348218203494345
0.8358257830498659
0.837024321294684
0.8385192663156662
0.8404392465317525
0.8429519855187578
0.8462799782456275
0.8507227643314065
0.8566868303296501
0.8647280463900682
0.8756121260889402
0.8904030778918544
0.9105979344056645
0.9383693236887066
0.9771635817313825
0.766235290511013
0.7946669438646657
0.8152513288645783
0.8302979089465173
0.8413453081560079
0.8494920633225176
0.8555246265757858
0.8600118647953342
0.8633689477345627
0.8659006833036069
0.8678333998875607
0.8693371835592288
0.8705421632531429
0.8715512113312671
0.8724494451894709
0.8733117801576098
0.8742098460198116
0.8752183533889886
0.8764217799060992
0.8779220134381722
0.8798476504929111
0.8823662125665233
0.8856996989669101
0.8901466113792694
0.8961114267198158
0.9041461868113443
0.9150092489904142
0.9297494158825442
0.9498320610353184
0.9773203051166554
1.015202414539653
2.651961909009078
2.6561858876562687
2.6679582357218843
2.6788159022322997
2.6877943442099164
2.694937879748085
2.7005311055975025
2.7048812559599407
2.7082608497396112
2.710896067870214
2.7129698994898863
2.7146294722736926
2.715993996899587
2.717162197434067
2.718218923961979
2.7192410652720045
2.7203030478170294
2.7214822287350935
2.7228644743331385
2.7245502706925095
2.7266617076054467
2.7293505670880256
2.7328076559843675
2.73727301585558
2.743045416031951
2.750486262581315
2.760003927584685
2.7719768109948495
2.786463210673017
2.8021662402999596
2.8078037947000354
4.514187488246093
4.516492587738179
4.522150191778862
4.5292195859092415
4.535922451595723
4.541733701659794
4.5465680118988905
4.550506709794693
4.553684301756048
4.556242544563651
4.5583129346709
4.560011475995769
4.561438901876253
4.562683243800732
4.563823312043649
4.564932512619835
4.566082799263169
4.567348702249463
4.568811466413097
4.570563309361281
4.572711709191092
4.575383422988099
4.578727356208373
4.582914491753846
4.5881306084634605
4.594552580274606
4.602286947884384
4.611218110934813
4.620643068752031
4.628188027477282
4.6312620832001645
6.370912913613209
6.372139660171937
6.375455048574219
6.379943997328541
6.384724394241893
6.389216124540969
6.393180415967111
6.396560884663179
6.399390017738854
6.401738500180347
6.403689653624412
6.4053272773564895
6.4067306840909515
6.407973558076721
6.409124790851041
6.410250353358386
6.411415702459941
6.412688411985231
6.414140828140768
6.415852514849467
6.4179121094962746
6.420417915013031
6.423475889099279
6.427192690091131
6.431659167862378
6.436915946333354
6.442885672499406
6.449247869198489
6.455227005797268
6.459644853029449
6.461279832726477
8.224319401447783
8.225066576622261
8.227133998833231
8.230093990036377
8.23345156576879
8.236811870908557
8.23993378609964
8.242708509719922
8.245110890536255
8.247162696988
8.248909350207091
8.250406405500954
8.251712377825616
8.252885476470356
8.253982641540718
8.255059919901557
8.256173575928813
8.257381500425687
8.258744581675474
8.26032766449221
8.26219957802713
8.264431442336456
8.267091909306698
8.270237312518718
8.273893381326804
8.278023930165425
8.28248173544996
8.28694339123778
8.290880747912349
8.293632394827993
8.294627103295648
10.07549152295287
10.075967387149412
10.077308968750812
10.079292194171884
10.081636955487742
10.084087413438887
10.086458022788712
10.088640020067645
10.090586428680599
10.092291880848254
10.093776219131042
10.095073141036414
10.096223150378849
10.097269635043824
10.09825700921362
10.099230159139415
10.100234638971566
10.101317168269114
10.102526057127921
10.103911149842746
10.105522764593239
10.107408918711895
10.10960978390779
10.112148064607673
10.1150136462492
10.11814150317103
10.121384693710505
10.124494189058183
10.127127536239524
10.128910197871352
10.129542723735824
11.92490736496318
11.925213861280678
11.926087517318429
11.92740604168363
11.92900790883072
11.930733497452628
11.93245402088708
11.934082818749005
11.935572972353574
11.936908457976644
11.938094468021736
11.939149449912268
11.940099483129336
11.940974734785701
11.941807459722565
11.94263105388149
11.943479741108085
11.944388514035465
11.945392994449403
11.946528850980846
11.947830340402366
11.949327442526993
11.951040907977873
11.952974599964659
11.955104723191779
11.957366752651609
11.959643569270927
11.96176215710404
11.963508664889309
11.964666948499962
11.965073467429121
13.772804359253787
13.772993521476321
13.773536673969783
13.77436771910832
13.775396339512339
13.776528668970828
13.777683837870253
13.778802658024155
13.779849003894316
13.780806555765011
13.781673873073963
13.782459624117317
13.783178827287843
13.78385025256311
13.784494794274098
13.785134555425769
13.785792377526185
13.78649154843628
13.787255442616814
13.788106829629825
13.789066551055711
13.790151235523826
13.791369690203137
13.7927177879725
13.794172005243892
13.795682744084704
13.797169947432424
13.79852485998655
13.799621610233928
13.800339244188606
13.80058930665826
15.619298178171888
15.619397094297883
15.619682697624523
15.620124389394313
15.620679451255473
15.621302053700308
15.621951006180279
15.622594454143684
15.623211371639485
15.62379069447627
15.624329325274307
15.62482991338584
15.625298943708101
15.625745316094566
15.626179382384443
15.626612340143371
15.627055857959895
15.627521791806066
15.628021860717059
15.628567140401836
15.62916722125048
15.629828877641643
15.630554105165546
15.631337526793544
15.632163383212049
15.633002817515221
15.63381270067405
15.634537579346759
15.635115940401363
15.635490528227812
15.635620364053157
17.464444245810434
17.46446515943371
17.46452662235459
17.464625035479468
17.4647551068342
17.464910683663028
17.46508557413182
17.46527418357857
17.46547190312205
17.465675251709456
17.46588184699857
17.466090267629262
17.466299870958565
17.466510607272255
17.466722843777198
17.466937204167
17.46715442268521
17.467375200750222
17.467600056650344
17.46782915744299
17.468062124261014
17.468297810079918
17.468534053189202
17.468767440810595
17.468993126124424
17.46920478543986
17.46939481135892
17.469554825328007
17.469676529496972
17.469752799410422
17.4697787951915
17.56739214223919
17.567409420750064
17.567460389901605
17.567542587442336
17.56765232715133
17.567785207515364
17.567936642149455
17.568102304526583
17.56827843945904
17.568462020638677
17.568650788497
17.568843196377227
17.56903830554107
17.569235659759464
17.56943515181753
17.569636890771463
17.56984107382273
17.570047856789202
17.570257219555796
17.570468821861887
17.570681847077285
17.57089483886895
17.571105538222778
17.571310752369847
17.57150628600735
17.57168699022722
17.571846977394078
17.571980032681218
17.572080210722326
17.572142540686475
17.57216370606663
17.670233213709132
17.670247773607695
17.670290847342415
17.670360700134648
17.670454696785523
17.670569621978174
17.670702028885366
17.670848548955554
17.671006130388495
17.671172180714986
17.671344628920256
17.671521916335877
17.671702940721442
17.671886974881264
17.672073568907216
17.67226244496321
17.67245339072617
17.672646149184022
17.67284030509522
17.67303516757382
17.673229650211628
17.67342215601323
17.673610474812158
17.67379171887283
17.673962315256773
17.6741180888627
17.674254458064535
17.67436675033453
17.674450619133662
17.67450250726643
17.67452007549383
17.77297261239656
17.772985089537563
17.773022085051245
17.77308234341563
17.773163934239083
17.773264459249013
17.773381285520614
17.77351176193189
17.773653397922516
17.77380398206818
17.773961647742397
17.77412488563071
17.774292517447275
17.774463645135093
17.77463758128622
17.774813768525654
17.774991694580123
17.77517080277977
17.77535040056219
17.77552956778746
17.775707068082248
17.775881270832024
17.776050090027198
17.776210959794092
17.7763608564338
17.776496387348352
17.776613955063272
17.776709994301747
17.776781264545086
17.776825160132663
17.77683998783296
17.87561420263034
17.87562505140112
17.875657275806994
17.87570994390206
17.8757816079474
17.875870441256833
17.875974396910742
17.87609135995013
17.876219280194327
17.87635626676168
17.876500648301313
17.876650994344807
17.87680610615239
17.876964986511307
17.87712679152042
17.877290770615275
17.877456201288588
17.877622319179146
17.877788247151663
17.877952926256718
17.878115052352793
17.87827302535417
17.878424915450616
17.878568461281564
17.87870110406771
17.87882006998184
17.87892250221932
17.879005637579127
17.87906701337216
17.879104678621147
17.879117378147654
17.97816090306349
17.97817045713695
17.978198875593204
17.978245449555935
17.978309067872623
17.978388309433168
17.978481552934284
17.978587084743165
17.978703197401664
17.97882826330754
17.978960786478208
17.9790994261096
17.97924299688772
17.979390452388206
17.979540852668457
17.979693320916034
17.97984699495616
17.980000974539337
17.98015426830139
17.980305743559853
17.980454082598424
17.980597751372798
17.980734983291352
17.980863789394824
17.98098199534558
17.981087312814736
17.98117744366524
17.981250211279313
17.981303708299457
17.981336442887237
17.981347463452483
18.077327975310492
18.07733648190017
18.077361812551562
18.07740341513018
18.077460417262
18.07753168974423
18.077615923626787
18.077711707330216
18.07781759988398
18.077932187718
18.07805412769833
18.07818216974101
18.078315162063785
18.078452043451893
18.07859182236509
18.07873354659864
18.078876268534408
18.079019006790606
18.079160707981536
18.079300211574946
18.07943622103788
18.079567286130608
18.079691797658175
18.079808003365617
18.079914043310254
18.080008009639197
18.080088027983326
18.080152355381863
18.08019948688681
18.0802282584544
18.080237933106027
18.169806881292487
18.169814526238092
18.169837310883192
18.169874795196165
18.169926278975804
18.169990846118743
18.17006741954689
18.17015481685607
18.170251805068908
18.17035714421929
18.170469622557594
18.1705880769416
18.170711400444766
18.170838540347965
18.170968485545718
18.17110024618167
18.171232829804303
18.171365214579197
18.171496322870233
18.17162499778631
18.17174998531549
18.17186992593679
18.171983356033625
18.172088725929594
18.172184431770766
18.17226886469755
18.17234047424228
18.172397841727555
18.17243975803596
18.172465297077363
18.17247387636537
18.255565324111114
18.255572252747406
18.255592916627467
18.255626957108724
18.255673799873932
18.255732686308104
18.25580271321349
18.255882873370272
18.255972096805383
18.256069284271
18.256173335890164
18.25628316900718
18.25639772673267
18.256515979604185
18.256636918926297
18.256759543925355
18.256882846347526
18.257005792720662
18.25712730711903
18.257246256571104
18.257361441171135
18.257471591973893
18.257575376310825
18.25767141603724
18.25775831541311
18.257834701240284
18.25789927232631
18.257950854904553
18.2579884600298
18.258011336800813
18.25801901566057
18.334573393835914
18.334579722281312
18.334598606251657
18.334629747001554
18.334672663432357
18.334726714664864
18.33479112918942
18.334865034758785
18.334947489828473
18.335037509406302
18.335134088412318
18.335236217122585
18.335342889906688
18.335453109218086
18.335565883147385
18.335680218167656
18.335795110139024
18.335909533494725
18.336022430982347
18.336132705657267
18.336239216693535
18.33634078144047
18.336436182906773
18.336524187256202
18.336603567836413
18.33667313791191
18.33673178946263
18.336778535416613
18.336812552535918
18.336833220534977
18.3368401535314
18.406803511933678
18.40680933492235
18.406826717873308
18.406855406660874
18.406894990015186
18.40694491600871
18.407004513797652
18.407073015931232
18.40714958262479
18.40723332190047
18.407323308789202
18.407418598681282
18.40751823589401
18.40762125912233
18.407726701962385
18.407833589762728
18.407940935408433
18.408047733705615
18.408152956322933
18.40825554859604
18.408354429347728
18.40844849564379
18.408536631375615
18.408617723591135
18.4086906831036
18.40875447129652
18.408808130812773
18.408850818095928
18.408881835866417
18.408900662305
18.408906974265236
18.472230400997763
18.472235797407116
18.472251912148515
18.47227852468843
18.47231527659259
18.472361683763864
18.472417152945688
18.472480998615172
18.47255246202501
18.472630727097304
18.472714936405417
18.472804202788687
18.47289761759663
18.472994257036774
18.47309318477513
18.47319345176856
18.47329409556028
18.473394138503167
18.473492586512982
18.47358842933146
18.473680643122574
18.473768196931793
18.473850061723393
18.473925225436115
18.47399271068939
18.474051596912823
18.474101044893416
18.474140322178357
18.474168828033964
18.47418611556413
18.474191909128848
18.530831461653985
18.53083649846775
18.530851543156484
18.530876400692765
18.530910752944326
18.530954167921777
18.5310061125551
18.531065965704837
18.531133033382556
18.53120656149939
18.531285749380864
18.531369759983914
18.531457727774637
18.531548765609593
18.531641968774593
18.531736416956765
18.531831176083124
18.531925299335605
18.532017828655068
18.532107797452205
18.532194235093023
18.532276174392752
18.532352660734773
18.532422765898065
18.53248560336966
18.532540346824526
18.53258625003386
18.53262266699883
18.532649071451814
18.532665073911428
18.532670434987704
18.582586032463492
18.582590767666463
18.58260491417875
18.582628296449702
18.58266062724976
18.582701514803237
18.582750472900386
18.582806931120714
18.582870247261784
18.582939717767836
18.583014589370187
18.583094068201575
18.583177327319962
18.583263513890355
18.58335175420776
18.583441157186805
18.58353081801595
18.583619821173347
18.583707243885534
18.583792160543382
18.583873648448026
18.583950795898517
18.58402271118939
18.584088535333343
18.584147455439183
18.584198720367084
18.584241657142286
18.58427568719635
18.584300341891442
18.584315275926084
18.584320277699373
18.627476360041214
18.627480844762466
18.627494244910597
18.62751639983007
18.627547046012882
18.62758582273078
18.62763228023989
18.627685888001874
18.627746045077448
18.627812088851922
18.627883305263502
18.627958937061578
18.62803819101471
18.628120245246574
18.628204254922487
18.62828935680116
18.62837467416635
18.62845932125482
18.62854240808279
18.6286230460289
18.628700354401822
18.628773468838695
18.62884155008477
18.62890379576586
18.628959452229928
18.629007828034975
18.629048307741744
18.629080365283077
18.629103576587397
18.629117630347924
18.62912233627597
18.665486676642285
18.665490956781777
18.665503747045616
18.66552489811505
18.665554164595868
18.66559120958823
18.6656356115289
18.665686870981002
18.665744419551434
18.66580762737663
18.665875812297955
18.6659482474666
18.666024168283936
18.666102779802916
18.666183262853835
18.66626477932821
18.666346477994033
18.666427499904337
18.666506984163764
18.666584074295073
18.666657925327854
18.66672771233309
18.666792638954714
18.666851948394385
18.666904934054752
18.666950951384074
18.66698942971889
18.66701988354621
18.667041923019124
18.667055262824796
18.66705972892486
18.69660393606188
18.69660805354543
18.696620358732805
18.696640710806502
18.69666887799349
18.696704541389856
18.696747300840087
18.69679668071475
18.696852137771426
18.69691306775072
18.696978813780404
18.69704867349203
18.69712190574526
18.697197738043915
18.697275372946084
18.697353993842697
18.697432771371453
18.69751086949221
18.69758745188619
18.697661688836487
18.69773276463608
18.697799886158712
18.697862291152646
18.697919258596713
18.697970118431876
18.698014262183257
18.698051153374557
18.698080337265
18.69810144985075
18.69811422537656
18.69811850200158
18.720817432725262
18.72082142650312
18.720833362670223
18.720853106580993
18.720880436373953
18.720915046286017
18.72095655186818
18.721004495065795
18.721058351343842
18.721117535662614
18.72118141033438
18.721249291788318
18.72132045712909
18.72139415154329
18.721469594887523
18.72154598779147
18.721622518465235
18.721698369214526
18.72177272325262
18.7218447719075
18.721913722217423
18.721978805488277
18.722039285384852
18.72209446780943
18.722143709966183
18.72218643010393
18.722222116916654
18.722250338207267
18.72227074883076
18.72228309726266
18.722287230520497
18.738118706648407
18.738122613513696
18.738134290364975
18.738153606745477
18.73818034753225
18.73821421592016
18.73825483820543
18.738301768412732
18.738354494937617
18.738412446115312
18.73847499771285
18.73854147945734
18.7386111814778
18.73868336169424
18.738757252511423
18.738832067123187
18.738907006564304
18.73898126649955
18.739054044290743
18.73912454639997
18.73919199608916
18.739255641947324
18.73931476582904
18.73936869239913
18.739416797742354
18.739458518514876
18.739493360669325
18.739520907408902
18.739540826433853
18.73955287589155
18.73955690881142
18.748501875589774
18.748505730872004
18.748517253798404
18.748536316341994
18.748562707293203
18.748596135058452
18.74863623220054
18.748682559810305
18.748734613876145
18.74879183062201
18.7488535937914
18.74891924103893
18.748988070303056
18.749059347180825
18.74913231167678
18.749206184616387
18.749280174830506
18.749353486093558
18.749425324327984
18.74949490511137
18.749561461426627
18.749624252163777
18.74968256996394
18.74973575056642
18.749783181154356
18.749824309165472
18.74985865063071
18.749885797724108
18.74990542561378
18.749917298061817
18.74992127158433
18.75196331834449
18.751967156525073
18.751978628416673
18.751997606788724
18.752023881715115
18.75205716331309
18.752097086204962
18.752143213807642
18.752195044613437
18.75225201745377
18.752313518715134
18.752378888686117
18.752447427907256
18.752518404540364
18.752591061134453
18.752664621073674
18.752738295803702
18.752811291817054
18.752882817900964
18.75295209267671
18.753018352365007
18.753080859277844
18.753138909630785
18.753191842824567
18.753239049704085
18.75327998125806
18.753314156831827
18.753341171545877
18.753360703018785
18.753372516853656
18.753376470709313
