# vtk DataFile Version 2.0
Unstructured Grid Example
ASCII
DATASET UNSTRUCTURED_GRID

POINTS 961 float
0.400000004 0.01999999956 0
0.3866666556 0.01999999956 0
0.3733333348 0.01999999956 0
0.3600000144 0.01999999956 0
0.346666664 0.01999999956 0
0.3333333432 0.01999999956 0
0.3199999928 0.01999999956 0
0.3066666724 0.01999999956 0
0.293333322 0.01999999956 0
0.2800000012 0.01999999956 0
0.2666666804 0.01999999956 0
0.25333333 0.01999999956 0
0.2399999948 0.01999999956 0
0.226666674 0.01999999956 0
0.2133333384 0.01999999956 0
0.2000000028 0.01999999956 0
0.1866666676 0.01999999956 0
0.173333332 0.01999999956 0
0.1599999964 0.01999999956 0
0.1466666608 0.01999999956 0
0.1333333404 0.01999999956 0
0.1199999972 0.01999999956 0
0.1066666692 0.01999999956 0
0.0933333336 0.01999999956 0
0.0799999984 0.01999999956 0
0.06666667 0.01999999956 0
0.0533333348 0.01999999956 0
0.03999999912 0.01999999956 0
0.02666666732 0.01999999956 0
0.01333333364 0.01999999956 0
0.0 0.01999999956 0
0.400000004 0.00666666684 0
0.3866666556 0.00666666684 0
0.3733333348 0.00666666684 0
0.3600000144 0.00666666684 0
0.346666664 0.00666666684 0
0.3333333432 0.00666666684 0
0.3199999928 0.00666666684 0
0.3066666724 0.00666666684 0
0.293333322 0.00666666684 0
0.2800000012 0.00666666684 0
0.2666666804 0.00666666684 0
0.25333333 0.00666666684 0
0.2399999948 0.00666666684 0
0.226666674 0.00666666684 0
0.2133333384 0.00666666684 0
0.2000000028 0.00666666684 0
0.1866666676 0.00666666684 0
0.173333332 0.00666666684 0
0.1599999964 0.00666666684 0
0.1466666608 0.00666666684 0
0.1333333404 0.00666666684 0
0.1199999972 0.00666666684 0
0.1066666692 0.00666666684 0
0.0933333336 0.00666666684 0
0.0799999984 0.00666666684 0
0.06666667 0.00666666684 0
0.0533333348 0.00666666684 0
0.03999999912 0.00666666684 0
0.02666666732 0.00666666684 0
0.01333333364 0.00666666684 0
0.0 0.00666666684 0
0.400000004 -0.00666666684 0
0.3866666556 -0.00666666684 0
0.3733333348 -0.00666666684 0
0.3600000144 -0.00666666684 0
0.346666664 -0.00666666684 0
0.3333333432 -0.00666666684 0
0.3199999928 -0.00666666684 0
0.3066666724 -0.00666666684 0
0.293333322 -0.00666666684 0
0.2800000012 -0.00666666684 0
0.2666666804 -0.00666666684 0
0.25333333 -0.00666666684 0
0.2399999948 -0.00666666684 0
0.226666674 -0.00666666684 0
0.2133333384 -0.00666666684 0
0.2000000028 -0.00666666684 0
0.1866666676 -0.00666666684 0
0.173333332 -0.00666666684 0
0.1599999964 -0.00666666684 0
0.1466666608 -0.00666666684 0
0.1333333404 -0.00666666684 0
0.1199999972 -0.00666666684 0
0.1066666692 -0.00666666684 0
0.0933333336 -0.00666666684 0
0.0799999984 -0.00666666684 0
0.06666667 -0.00666666684 0
0.0533333348 -0.00666666684 0
0.03999999912 -0.00666666684 0
0.02666666732 -0.00666666684 0
0.01333333364 -0.00666666684 0
0.0 -0.00666666684 0
0.400000004 -0.01999999956 0
0.3866666556 -0.01999999956 0
0.3733333348 -0.01999999956 0
0.3600000144 -0.01999999956 0
0.346666664 -0.01999999956 0
0.3333333432 -0.01999999956 0
0.3199999928 -0.01999999956 0
0.3066666724 -0.01999999956 0
0.293333322 -0.01999999956 0
0.2800000012 -0.01999999956 0
0.2666666804 -0.01999999956 0
0.25333333 -0.01999999956 0
0.2399999948 -0.01999999956 0
0.226666674 -0.01999999956 0
0.2133333384 -0.01999999956 0
0.2000000028 -0.01999999956 0
0.1866666676 -0.01999999956 0
0.173333332 -0.01999999956 0
0.1599999964 -0.01999999956 0
0.1466666608 -0.01999999956 0
0.1333333404 -0.01999999956 0
0.1199999972 -0.01999999956 0
0.1066666692 -0.01999999956 0
0.0933333336 -0.01999999956 0
0.0799999984 -0.01999999956 0
0.06666667 -0.01999999956 0
0.0533333348 -0.01999999956 0
0.03999999912 -0.01999999956 0
0.02666666732 -0.01999999956 0
0.01333333364 -0.01999999956 0
0.0 -0.01999999956 0
0.400000004 -0.03333333508 0
0.3866666556 -0.03333333508 0
0.3733333348 -0.03333333508 0
0.3600000144 -0.03333333508 0
0.346666664 -0.03333333508 0
0.3333333432 -0.03333333508 0
0.3199999928 -0.03333333508 0
0.3066666724 -0.03333333508 0
0.293333322 -0.03333333508 0
0.2800000012 -0.03333333508 0
0.2666666804 -0.03333333508 0
0.25333333 -0.03333333508 0
0.2399999948 -0.03333333508 0
0.226666674 -0.03333333508 0
0.2133333384 -0.03333333508 0
0.2000000028 -0.03333333508 0
0.1866666676 -0.03333333508 0
0.173333332 -0.03333333508 0
0.1599999964 -0.03333333508 0
0.1466666608 -0.03333333508 0
0.1333333404 -0.03333333508 0
0.1199999972 -0.03333333508 0
0.1066666692 -0.03333333508 0
0.0933333336 -0.03333333508 0
0.0799999984 -0.03333333508 0
0.06666667 -0.03333333508 0
0.0533333348 -0.03333333508 0
0.03999999912 -0.03333333508 0
0.02666666732 -0.03333333508 0
0.01333333364 -0.03333333508 0
0.0 -0.03333333508 0
0.400000004 -0.0466666668 0
0.3866666556 -0.0466666668 0
0.3733333348 -0.0466666668 0
0.3600000144 -0.0466666668 0
0.346666664 -0.0466666668 0
0.3333333432 -0.0466666668 0
0.3199999928 -0.0466666668 0
0.3066666724 -0.0466666668 0
0.293333322 -0.0466666668 0
0.2800000012 -0.0466666668 0
0.2666666804 -0.0466666668 0
0.25333333 -0.0466666668 0
0.2399999948 -0.0466666668 0
0.226666674 -0.0466666668 0
0.2133333384 -0.0466666668 0
0.2000000028 -0.0466666668 0
0.1866666676 -0.0466666668 0
0.173333332 -0.0466666668 0
0.1599999964 -0.0466666668 0
0.1466666608 -0.0466666668 0
0.1333333404 -0.0466666668 0
0.1199999972 -0.0466666668 0
0.1066666692 -0.0466666668 0
0.0933333336 -0.0466666668 0
0.0799999984 -0.0466666668 0
0.06666667 -0.0466666668 0
0.0533333348 -0.0466666668 0
0.03999999912 -0.0466666668 0
0.02666666732 -0.0466666668 0
0.01333333364 -0.0466666668 0
0.0 -0.0466666668 0
0.400000004 -0.0599999988 0
0.3866666556 -0.0599999988 0
0.3733333348 -0.0599999988 0
0.3600000144 -0.0599999988 0
0.346666664 -0.0599999988 0
0.3333333432 -0.0599999988 0
0.3199999928 -0.0599999988 0
0.3066666724 -0.0599999988 0
0.293333322 -0.0599999988 0
0.2800000012 -0.0599999988 0
0.2666666804 -0.0599999988 0
0.25333333 -0.0599999988 0
0.2399999948 -0.0599999988 0
0.226666674 -0.0599999988 0
0.2133333384 -0.0599999988 0
0.2000000028 -0.0599999988 0
0.1866666676 -0.0599999988 0
0.173333332 -0.0599999988 0
0.1599999964 -0.0599999988 0
0.1466666608 -0.0599999988 0
0.1333333404 -0.0599999988 0
0.1199999972 -0.0599999988 0
0.1066666692 -0.0599999988 0
0.0933333336 -0.0599999988 0
0.0799999984 -0.0599999988 0
0.06666667 -0.0599999988 0
0.0533333348 -0.0599999988 0
0.03999999912 -0.0599999988 0
0.02666666732 -0.0599999988 0
0.01333333364 -0.0599999988 0
0.0 -0.0599999988 0
0.400000004 -0.0733333304 0
0.3866666556 -0.0733333304 0
0.3733333348 -0.0733333304 0
0.3600000144 -0.0733333304 0
0.346666664 -0.0733333304 0
0.3333333432 -0.0733333304 0
0.3199999928 -0.0733333304 0
0.3066666724 -0.0733333304 0
0.293333322 -0.0733333304 0
0.2800000012 -0.0733333304 0
0.2666666804 -0.0733333304 0
0.25333333 -0.0733333304 0
0.2399999948 -0.0733333304 0
0.226666674 -0.0733333304 0
0.2133333384 -0.0733333304 0
0.2000000028 -0.0733333304 0
0.1866666676 -0.0733333304 0
0.173333332 -0.0733333304 0
0.1599999964 -0.0733333304 0
0.1466666608 -0.0733333304 0
0.1333333404 -0.0733333304 0
0.1199999972 -0.0733333304 0
0.1066666692 -0.0733333304 0
0.0933333336 -0.0733333304 0
0.0799999984 -0.0733333304 0
0.06666667 -0.0733333304 0
0.0533333348 -0.0733333304 0
0.03999999912 -0.0733333304 0
0.02666666732 -0.0733333304 0
0.01333333364 -0.0733333304 0
0.0 -0.0733333304 0
0.400000004 -0.086666666 0
0.3866666556 -0.086666666 0
0.3733333348 -0.086666666 0
0.3600000144 -0.086666666 0
0.346666664 -0.086666666 0
0.3333333432 -0.086666666 0
0.3199999928 -0.086666666 0
0.3066666724 -0.086666666 0
0.293333322 -0.086666666 0
0.2800000012 -0.086666666 0
0.2666666804 -0.086666666 0
0.25333333 -0.086666666 0
0.2399999948 -0.086666666 0
0.226666674 -0.086666666 0
0.2133333384 -0.086666666 0
0.2000000028 -0.086666666 0
0.1866666676 -0.086666666 0
0.173333332 -0.086666666 0
0.1599999964 -0.086666666 0
0.1466666608 -0.086666666 0
0.1333333404 -0.086666666 0
0.1199999972 -0.086666666 0
0.1066666692 -0.086666666 0
0.0933333336 -0.086666666 0
0.0799999984 -0.086666666 0
0.06666667 -0.086666666 0
0.0533333348 -0.086666666 0
0.03999999912 -0.086666666 0
0.02666666732 -0.086666666 0
0.01333333364 -0.086666666 0
0.0 -0.086666666 0
0.400000004 -0.1000000016 0
0.3866666556 -0.1000000016 0
0.3733333348 -0.1000000016 0
0.3600000144 -0.1000000016 0
0.346666664 -0.1000000016 0
0.3333333432 -0.1000000016 0
0.3199999928 -0.1000000016 0
0.3066666724 -0.1000000016 0
0.293333322 -0.1000000016 0
0.2800000012 -0.1000000016 0
0.2666666804 -0.1000000016 0
0.25333333 -0.1000000016 0
0.2399999948 -0.1000000016 0
0.226666674 -0.1000000016 0
0.2133333384 -0.1000000016 0
0.2000000028 -0.1000000016 0
0.1866666676 -0.1000000016 0
0.173333332 -0.1000000016 0
0.1599999964 -0.1000000016 0
0.1466666608 -0.1000000016 0
0.1333333404 -0.1000000016 0
0.1199999972 -0.1000000016 0
0.1066666692 -0.1000000016 0
0.0933333336 -0.1000000016 0
0.0799999984 -0.1000000016 0
0.06666667 -0.1000000016 0
0.0533333348 -0.1000000016 0
0.03999999912 -0.1000000016 0
0.02666666732 -0.1000000016 0
0.01333333364 -0.1000000016 0
0.0 -0.1000000016 0
0.400000004 -0.1133333372 0
0.3866666556 -0.1133333372 0
0.3733333348 -0.1133333372 0
0.3600000144 -0.1133333372 0
0.346666664 -0.1133333372 0
0.3333333432 -0.1133333372 0
0.3199999928 -0.1133333372 0
0.3066666724 -0.1133333372 0
0.293333322 -0.1133333372 0
0.2800000012 -0.1133333372 0
0.2666666804 -0.1133333372 0
0.25333333 -0.1133333372 0
0.2399999948 -0.1133333372 0
0.226666674 -0.1133333372 0
0.2133333384 -0.1133333372 0
0.2000000028 -0.1133333372 0
0.1866666676 -0.1133333372 0
0.173333332 -0.1133333372 0
0.1599999964 -0.1133333372 0
0.1466666608 -0.1133333372 0
0.1333333404 -0.1133333372 0
0.1199999972 -0.1133333372 0
0.1066666692 -0.1133333372 0
0.0933333336 -0.1133333372 0
0.0799999984 -0.1133333372 0
0.06666667 -0.1133333372 0
0.0533333348 -0.1133333372 0
0.03999999912 -0.1133333372 0
0.02666666732 -0.1133333372 0
0.01333333364 -0.1133333372 0
0.0 -0.1133333372 0
0.400000004 -0.1266666652 0
0.3866666556 -0.1266666652 0
0.3733333348 -0.1266666652 0
[...]
POINT_DATA 961
SCALARS Temp float 1
LOOKUP_TABLE default
0.6763388405204778
0.7033520151542856
0.7227376224284174
0.7368328499155486
0.7471605277068393
0.7547648944807683
0.7603893832049707
0.764569088519374
0.7676934741210475
0.7700479048086074
0.771843954228262
0.7732404203427325
0.7743586583789275
0.7752945139122889
0.7761272266023507
0.7769264933709346
0.7777589362734785
0.7786940481433962
0.7798104388193559
0.7812029809489973
0.7829915125230786
0.7853322941977267
0.7884326139691611
0.7925715379346538
0.798127768614974
0.8056191808851512
0.8157591491303855
0.8295389527109855
0.8483532959530748
0.8742262987871278
0.9103687248100247
0.7138628636612137
0.740351187828942
0.7595285780115152
0.7735466482502701
0.7838388592078189
0.7914286641310301
0.797048762500584
0.8012291405431649
0.804356592653044
0.8067150947384252
0.8085155073870878
0.809916293159961
0.811038688657849
0.8119785369757856
0.8128151398432584
0.8136182942482292
0.8144547361696697
0.8153940717632517
0.8165150065056992
0.8179124659200249
0.8197062583751392
0.8220524563644349
0.825157886202528
0.8293006470932909
0.8348575693748287
0.842342961359563
0.8524633441012023
0.8661958305816939
0.8849056301994419
0.9105148408793238
0.9458074693822613
2.4707027152183523
2.4746379435197077
2.485605528729939
2.4957208749414455
2.50408536927191
2.51074030429209
2.51595082855332
2.5200031812730237
2.5231512596752514
2.525605790731932
2.527537262259395
2.529082752177283
2.5303533299115504
2.5314409788335013
2.5324247568338567
2.5333763047899645
2.534364969573208
2.53546282835698
2.5367498857068336
2.538319766418861
2.5402862219959634
2.5427906661988104
2.5460108696670223
2.5501704718596976
2.5555478251899073
2.5624796368005756
2.5713463690675438
2.5825005607093683
2.5959965289992635
2.6106260416824103
2.615878194744467
4.205647976861647
4.207795456774136
4.2130661669107425
4.219652044101581
4.225896322733846
4.231309810944535
4.235813022972719
4.239481735084121
4.2424412686567905
4.2448237008110805
4.246751550481238
4.248332903740076
4.249661620479715
4.250819727435059
4.251880660783173
4.252912822071259
4.2539832599219976
4.255161423333221
4.256523016705427
4.258153966852282
4.260154417503596
4.262642472994102
4.265756871412057
4.269656918422677
4.274515703429437
4.2804980187744075
4.287703130355748
4.296023346747173
4.304803727500741
4.31183274630922
4.314696606002424
5.935469253613022
5.9366120603151105
5.93970056800097
5.943882244666793
5.948335276176868
5.95251920603998
5.956211591098789
5.959359911888858
5.961994447032089
5.964181063574957
5.965997402732731
5.967521551819541
5.968827419180842
5.9699836701564095
5.971054505521218
5.972101405454426
5.973185371350122
5.9743693768284025
5.97572084143762
5.977313908649687
5.979231174572165
5.981564239378427
5.984411833830006
5.98787334034011
5.992033412250068
5.996929908860961
6.002490775538874
6.008417450932452
6.013987424132314
6.01810301054672
6.0196261376907545
7.662198761500413
7.662894748750327
7.66482050858664
7.667577598993521
7.6707048745487185
7.673834477753317
7.6767417812747665
7.679325433715258
7.681562018523136
7.683471833694823
7.685097214895699
7.686489940747554
7.687704548477406
7.688795291535732
7.689815241689953
7.690816639025686
7.691851926503961
7.692975062311909
7.694242796937962
7.695715566411369
7.697457517963757
7.699534932107508
7.702011788669396
7.7049405897449095
7.708345323553255
7.7121922938388465
7.716344354464623
7.720500217917445
7.724167846153048
7.7267310467899115
7.727657642258686
9.386847027204565
9.38729021970558
9.388539666752687
9.39038661518638
9.392570110650171
9.394851811736416
9.39705886932117
9.399089970716926
9.400901369467828
9.40248808628887
9.403868631169654
9.405074423884352
9.406143226869618
9.407115490760141
9.408032623287705
9.408936472630266
9.409869509518307
9.410875290411948
9.411998853244077
9.41328666461281
9.414785631637567
9.416540516584746
9.418588770849652
9.420951570705062
9.42361951474415
9.426532041663894
9.429552271094767
9.432448211077197
9.434900828682158
9.436561196650873
9.437150339001073
11.109859545994144
11.110144917762987
11.110958334802625
11.112185870202879
11.113677048355015
11.115283171401515
11.116884272051049
11.118399633251784
11.119785566341054
11.121027168765774
11.122129306482949
11.123109196701492
11.123991168937188
11.124803362469349
11.125575862762508
11.126339819174078
11.127127152757875
11.127970500794847
11.128903086308537
11.12995817517201
11.131167716739258
11.132559674210164
11.134153410594774
11.135952553618186
11.13793496061134
11.140040540510759
11.142160200244561
11.144132767462606
11.145759022331372
11.146837605196238
11.147216160421685
12.831457606399777
12.831633633231062
12.832139045075822
12.832912268897319
12.833869171764402
12.834922318785992
12.835996387446887
12.837036258632757
12.838008303142619
12.838897347212713
12.839702082211605
12.840430620047655
12.841096990948305
12.841718722108808
12.842315321247225
12.842907423079904
12.84351635080716
12.84416384346777
12.844871720310117
12.845661236099502
12.846551848029158
12.847559086489653
12.848691192840942
12.849944355649967
12.85129668990102
12.8527020152486
12.854085770653791
12.855346654646123
12.856367415411174
12.857035378200427
12.85726814110967
14.551749059262471
14.551840975974153
14.552106345447536
14.552516668189078
14.553032158603354
14.553610137569127
14.554212252600934
14.554808853625843
14.555380383222088
14.555916568732734
14.556414563238313
14.556876876815444
14.55730959554848
14.557721057517687
14.558120955142627
14.558519769859346
14.55892842247103
14.559358008356503
14.559819494775766
14.560323248557182
14.560878251139188
14.561490858310483
14.562162971154383
14.562889619025874
14.563656155216098
14.564435726855258
14.565188180317678
14.5658618755905
14.566399522315793
14.566747791645192
14.566868513812036
16.270785624632953
16.270804835997573
16.270861282481103
16.27095161992073
16.27107093282241
16.271213509441267
16.27137360706467
16.271546044532577
16.27172656389348
16.271911962408197
16.272100064925084
16.272289595101313
16.27248000510081
16.27267130190728
16.27286388276699
16.273058385144843
16.27325555012338
16.27345608820847
16.273660538674733
16.273869112336847
16.274081509565125
16.274296712635895
16.274512755540435
16.27472650319029
16.274933480493306
16.275127831996777
16.27530250144934
16.27544970898243
16.2755617444481
16.275631985192092
16.275655931119946
16.366697685036698
16.366713506290235
16.366760165915146
16.366835378999475
16.366935726234512
16.367057127677864
16.367195336660174
16.367346353872303
16.367506717160925
16.36767364796185
16.367845086068872
16.368019639015177
16.36819648375504
16.368375249221483
16.368555891368494
16.36873856891825
16.36892352334554
16.369110957575266
16.36930090999851
16.369493119491132
16.369686879261625
16.369880884067012
16.370073077854375
16.37026053106836
16.370439376109978
16.37060485246021
16.370751506466537
16.370873574409938
16.370965538076916
16.37102278140973
16.371042223664084
16.462510792253607
16.462524074258887
16.462563358829794
16.46262703901465
16.46271267503735
16.462817292557727
16.462937707186523
16.46307081284686
16.463213803544917
16.463364305857525
16.46352043629424
16.463680792330983
16.463844399800724
16.46401063645367
16.464179140280965
16.46434971089427
16.464522209587663
16.464696456026196
16.464872121819937
16.465048620493697
16.46522499518232
16.465399810800918
16.465571057940153
16.46573609227816
16.465891626994086
16.466033809660598
16.466158404096436
16.466261084068847
16.466337821385533
16.466385317342525
16.466401401872176
16.55822975915766
16.55824109124472
16.558274684593584
16.5583293790627
16.558403392023553
16.558494511047673
16.558600310920106
16.5587183550408
16.558846361546767
16.558982313423414
16.55912451914602
16.55927162384161
16.55942258427175
16.559576620865073
16.559733152272116
16.5598917196428
16.560051906815538
16.560213256272554
16.560375183229805
16.560536889556182
16.560697280535535
16.560854891539652
16.561007830503478
16.561153754516678
16.56128988986537
16.561413114392565
16.561520109882377
16.561607582571366
16.56167253539906
16.561712556669267
16.56172607847518
16.65385820485259
16.653868007184528
16.653897117617507
16.653944677883956
16.65400935570413
16.654089472117928
16.654183149064806
16.654288450905387
16.654403507724467
16.6545266030175
16.654656229250037
16.654791107231627
16.654930177034412
16.655072569188196
16.65521755911241
16.65536451059716
16.655512814271024
16.65566182177589
16.65581077899713
16.655958761050996
16.656104612568672
16.65624689973344
16.65638387823432
16.65651349092625
16.656633399116654
16.65674105879734
16.656833843242275
16.65690920714527
16.656964879059775
16.656999057910063
16.657010584315092
16.749398873659416
16.749407453798582
16.74943297062942
16.749474774229554
16.749531846764064
16.74960288832532
16.74968641889434
16.74978087854795
16.74988471877097
16.749996470708066
16.750114792805057
16.750238492212073
16.75036652449161
16.750497977450202
16.750632040263532
16.75076796241083
16.750905007744755
16.751042404653056
16.75117929591005
16.751314691176574
16.751447425567147
16.751576129779302
16.75169921437743
16.751814878604225
16.75192114430261
16.75201592188793
16.75209710694116
16.752162702166757
16.752210954692437
16.752240492065184
16.752250438265268
16.841792214350257
16.841799801381974
16.84182238999027
16.841859476843915
16.841910267496683
16.84197373528614
16.842048692829998
16.842133863573938
16.84222794954029
16.84232968382373
16.84243787006979
16.842551402968486
16.842669272533755
16.842790556157688
16.84291439842692
16.84303998214391
16.843166495160624
16.84329309388143
16.84341886686331
16.84354280130801
16.843663755436864
16.843780441240813
16.843891418952627
16.843995111146924
16.84408983512659
16.84417385805007
16.844245472268046
16.8443030861405
16.844345322993462
16.844371116697705
16.844379791740835
16.92795643190485
16.927963199949716
16.927983368040387
16.928016537816838
16.928062076115168
16.928119156023122
16.92818680772157
16.92826397001619
16.928349540841214
16.928442417430897
16.9285415284735
16.92864585250633
16.92875442436134
16.928866332518453
16.928980706619456
16.92909669774771
16.929213455383046
16.929330101639902
16.929445705843722
16.9295592618766
16.92966967075339
16.929775732016427
16.929876144383385
16.92996952180749
16.93005442258503
16.930129394574834
16.93019303374482
16.930244052119463
16.930281349855438
16.93030408339406
16.9303117216881
17.007861292534592
17.007867378022354
17.007885524846056
17.007915410968682
17.00795652132807
17.008008176875077
17.00806957122822
17.008139808135418
17.0082179393936
17.00830299558654
17.00839401209995
17.008490045123953
17.00859017894393
17.008693526678726
17.00879922329048
17.008906412837653
17.009014233259453
17.009121799010458
17.00922818415799
17.009332407948502
17.00943342478233
17.00953012142778
17.0096213212762
17.009705800567076
17.009782313741976
17.00984963022144
17.009906579947945
17.00995210456539
17.009985310496997
17.010005518224308
17.010012302409695
17.08147870074252
17.081484212925375
17.08150065923964
17.081527773913468
17.081565129495875
17.081612157685136
17.081668176127515
17.081732415927924
17.081804050392744
17.08188221864298
17.081966046679273
17.082054661118367
17.082147196637667
17.082242798853045
17.082340621223906
17.082439817484776
17.082539532365253
17.08263889064337
17.082736986710138
17.082832876239408
17.08292557144102
17.083014042120745
17.083097221928305
17.08317402385251
17.08324336196283
17.083304181264356
17.083355493283882
17.08339641494603
17.08342620811809
17.083444315737314
17.08345039088549
17.148782657312783
17.148787685558318
17.148802694504727
17.148827460375834
17.148861621480815
17.14890469336561
17.148956088697233
17.149015137697777
17.149081110191375
17.14915323388277
17.149230711525068
17.14931273268395
17.149398481000446
17.149487138400733
17.149577884740808
17.149669894035842
17.149762329602382
17.149854337925223
17.149945043036944
17.15003354264014
17.15011890706728
17.150200182826065
17.150276399846195
17.150346585862067
17.15040978494597
17.150465081818492
17.150511629860382
17.150548680943686
17.150575615264643
17.15059196820414
17.15059745171962
17.20974924420975
17.20975386314687
17.209767655038483
17.2097904277929
17.209821869585998
17.20986156004816
17.209908985257584
17.209963553117905
17.210024610514594
17.210091457622568
17.210163362052242
17.210239568976483
17.21031930807056
17.21040179853184
17.21048625063417
17.210571864709532
17.210657829533815
17.210743319742967
17.21082749373647
17.210909492994848
17.210988443599565
17.211063461338785
17.21113365935531
17.211198161316087
17.211256117221208
17.211306723338556
17.21134924447623
17.21138303714848
17.211407572392442
17.21142245603676
17.211427444688507
17.26435699167815
17.264361264885434
17.264374027841875
17.26439511256858
17.26442424536778
17.26446105521842
17.264505085287286
17.264555804680654
17.264612622025243
17.264674896832442
17.264741951326585
17.26481307925158
17.264887552450112
17.264964626356914
17.26504354287044
17.26512353130534
17.265203809122347
17.265283581921025
17.26536204388134
17.265438379337397
17.265511766033757
17.26558138117114
17.265646409110126
17.265706053373844
17.265759550208788
17.265806185101408
17.265845310712894
17.265876365123155
17.26589888955149
17.26591254389892
17.2659171188966
17.312586206549156
17.312590189248173
17.312602086984878
17.31262175023676
17.312648934610692
17.31268330726318
17.312724455920403
17.312771898024128
17.312825091698347
17.312883444940486
17.312946325686234
17.313013069572733
17.313082986170798
17.31315536473741
17.313229477984102
17.313304584423157
17.31337993076678
17.313454753762137
17.3135282824325
17.313599741217477
17.313668354382855
17.31373335259816
17.313793980509228
17.31384950769164
17.3138992403932
17.313942535403076
17.313978814716926
17.314007580142768
17.31402842730626
17.31404105778547
17.314045288513658
17.354419895505536
17.35442363655389
17.35443481416299
17.35445329295823
17.35447885109468
17.354511185275076
17.35454991798502
17.354594604766408
17.35464474327601
17.354699780879972
17.35475912338807
17.354822142005272
17.35488817925474
17.35495655485587
17.355026570093248
17.355097511134883
17.355168652602032
17.355239260701143
17.35530859671998
17.355375921236515
17.355440499275865
17.355501607158843
17.355558539855824
17.3556106210375
17.35565721337197
17.355697730360802
17.35573164855017
17.35575851945093
17.355777980832585
17.35578976639475
17.355793713198455
17.38984292520366
17.389846468607015
17.3898570569553
17.38987456566606
17.389898790150937
17.38992944984016
17.389966194141987
17.39000860837635
17.390056221448177
17.39010851227839
17.390164917544276
17.39022483801056
17.390287644190263
17.390352682268258
17.390419278864627
17.39048674502
17.390554380572112
17.39062147818526
17.3906873277062
17.3907512210869
17.390812458011528
17.390870352856
17.390924241797375
17.39097349211591
17.391017511363938
17.391055757659114
17.39108775006851
17.39111307855689
17.391131413309328
17.3911425126256
17.391146228937796
17.418842727337786
17.418846113415697
17.418856232544677
17.418872968251563
17.41889612895097
17.41892545127246
17.418960605117537
17.41900119864527
17.419046784953167
17.41909686767216
17.419150907977958
17.419208330457423
17.419268528557698
17.419330870510834
17.41939470434956
17.419459362341644
17.419524165910328
17.419588430272004
17.41965146936823
17.419712601254183
17.41977115401032
17.4198264727229
17.419877926360716
17.419924916479435
17.41996688553113
17.42000332600893
17.420033789491956
17.420057895165517
17.42007533772681
17.42008589401095
17.420089428003923
17.441408961686864
17.441412227999887
17.441421989837103
17.44143813662292
17.441460486250044
17.441488787928837
17.441522726621823
17.44156192737567
17.441605961310266
17.441654350630202
17.441706575117998
17.4417620776651
17.44182026955854
17.441880536386613
17.44194224321099
17.44200473929373
17.44206736337387
17.44212944870436
17.442190328358368
17.44224934091178
17.442305836519623
17.442359183873826
17.442408776882907
17.4424540429218
17.44249445051236
17.442529517641226
17.44255881985352
17.44258199776772
17.442598763990553
17.442608908860535
17.442612304764904
17.4575334434919
17.45753662560107
17.457546136186778
17.45756186868155
17.45758364743069
17.4576112302323
17.45764431236615
17.45768253050057
17.457725468227146
17.457772660689212
17.45782360072955
17.457877744195446
17.457934515110715
17.457993311558234
17.458053510943582
17.458114474902732
17.458175554798874
17.458236097007205
17.458295448451395
17.458352962461515
17.45840800494011
17.45845996128478
17.458508242919365
17.458552295225843
17.458591604795828
17.458625707192066
17.45865419440818
17.458676721718394
17.458693013939907
17.45870287059766
17.45870616978601
17.46721046621691
17.467213598326822
17.467222959703967
17.467238446108038
17.467259885635176
17.4672870410843
17.46731961375754
17.467357247127573
17.46739953211516
17.467446011500385
17.46749618587282
17.46754951880604
17.467605441961634
17.467663360954212
17.46772266066234
17.467782710233692
17.46784286870089
17.467902490400856
17.467960930634767
17.468017551618384
17.468071728691047
17.46812285721014
17.468170358990527
17.468213690048383
17.46825234760332
17.468285877519275
17.468313881401333
17.468336023066524
17.468352034435604
17.46836172037001
17.46836496227627
17.470436516255738
17.47043963178514
17.470448943679493
17.47046434846164
17.47048567545848
17.470512689111327
17.470545092702487
17.47058253194546
17.470624600178986
17.47067084270816
17.470720762690192
17.470773826266182
17.47082946764276
17.470887094950584
17.470946095569705
17.471005841165628
17.471065693342567
17.471125009105293
17.47118314655809
17.471239470883532
17.4712933605643
17.47134421426689
17.471391457250316
17.471434549047522
17.471472990385745
17.47150633052279
17.471534174225653
17.47155618811817
17.471572106452832
17.471581735841433
17.471584958776415
