# vtk DataFile Version 2.0
Unstructured Grid Example
ASCII
DATASET UNSTRUCTURED_GRID

POINTS 961 float
0.400000004 0.01999999956 0
0.3866666556 0.01999999956 0
0.3733333348 0.01999999956 0
0.3600000144 0.01999999956 0
0.346666664 0.01999999956 0
0.3333333432 0.01999999956 0
0.3199999928 0.01999999956 0
0.3066666724 0.01999999956 0
0.293333322 0.01999999956 0
0.2800000012 0.01999999956 0
0.2666666804 0.01999999956 0
0.25333333 0.01999999956 0
0.2399999948 0.01999999956 0
0.226666674 0.01999999956 0
0.2133333384 0.01999999956 0
0.2000000028 0.01999999956 0
0.1866666676 0.01999999956 0
0.173333332 0.01999999956 0
0.1599999964 0.01999999956 0
0.1466666608 0.01999999956 0
0.1333333404 0.01999999956 0
0.1199999972 0.01999999956 0
0.1066666692 0.01999999956 0
0.0933333336 0.01999999956 0
0.0799999984 0.01999999956 0
0.06666667 0.01999999956 0
0.0533333348 0.01999999956 0
0.03999999912 0.01999999956 0
0.02666666732 0.01999999956 0
0.01333333364 0.01999999956 0
0.0 0.01999999956 0
0.400000004 0.00666666684 0
0.3866666556 0.00666666684 0
0.3733333348 0.00666666684 0
0.3600000144 0.00666666684 0
0.346666664 0.00666666684 0
0.3333333432 0.00666666684 0
0.3199999928 0.00666666684 0
0.3066666724 0.00666666684 0
0.293333322 0.00666666684 0
0.2800000012 0.00666666684 0
0.2666666804 0.00666666684 0
0.25333333 0.00666666684 0
0.2399999948 0.00666666684 0
0.226666674 0.00666666684 0
0.2133333384 0.00666666684 0
0.2000000028 0.00666666684 0
0.1866666676 0.00666666684 0
0.173333332 0.00666666684 0
0.1599999964 0.00666666684 0
0.1466666608 0.00666666684 0
0.1333333404 0.00666666684 0
0.1199999972 0.00666666684 0
0.1066666692 0.00666666684 0
0.0933333336 0.00666666684 0
0.0799999984 0.00666666684 0
0.06666667 0.00666666684 0
0.0533333348 0.00666666684 0
0.03999999912 0.00666666684 0
0.02666666732 0.00666666684 0
0.01333333364 0.00666666684 0
0.0 0.00666666684 0
0.400000004 -0.00666666684 0
0.3866666556 -0.00666666684 0
0.3733333348 -0.00666666684 0
0.3600000144 -0.00666666684 0
0.346666664 -0.00666666684 0
0.3333333432 -0.00666666684 0
0.3199999928 -0.00666666684 0
0.3066666724 -0.00666666684 0
0.293333322 -0.00666666684 0
0.2800000012 -0.00666666684 0
0.2666666804 -0.00666666684 0
0.25333333 -0.00666666684 0
0.2399999948 -0.00666666684 0
0.226666674 -0.00666666684 0
0.2133333384 -0.00666666684 0
0.2000000028 -0.00666666684 0
0.1866666676 -0.00666666684 0
0.173333332 -0.00666666684 0
0.1599999964 -0.00666666684 0
0.1466666608 -0.00666666684 0
0.1333333404 -0.00666666684 0
0.1199999972 -0.00666666684 0
0.1066666692 -0.00666666684 0
0.0933333336 -0.00666666684 0
0.0799999984 -0.00666666684 0
0.06666667 -0.00666666684 0
0.0533333348 -0.00666666684 0
0.03999999912 -0.00666666684 0
0.02666666732 -0.00666666684 0
0.01333333364 -0.00666666684 0
0.0 -0.00666666684 0
0.400000004 -0.01999999956 0
0.3866666556 -0.01999999956 0
0.3733333348 -0.01999999956 0
0.3600000144 -0.01999999956 0
0.346666664 -0.01999999956 0
0.3333333432 -0.01999999956 0
0.3199999928 -0.01999999956 0
0.3066666724 -0.01999999956 0
0.293333322 -0.01999999956 0
0.2800000012 -0.01999999956 0
0.2666666804 -0.01999999956 0
0.25333333 -0.01999999956 0
0.2399999948 -0.01999999956 0
0.226666674 -0.01999999956 0
0.2133333384 -0.01999999956 0
0.2000000028 -0.01999999956 0
0.1866666676 -0.01999999956 0
0.173333332 -0.01999999956 0
0.1599999964 -0.01999999956 0
0.1466666608 -0.01999999956 0
0.1333333404 -0.01999999956 0
0.1199999972 -0.01999999956 0
0.1066666692 -0.01999999956 0
0.0933333336 -0.01999999956 0
0.0799999984 -0.01999999956 0
0.06666667 -0.01999999956 0
0.0533333348 -0.01999999956 0
0.03999999912 -0.01999999956 0
0.02666666732 -0.01999999956 0
0.01333333364 -0.01999999956 0
0.0 -0.01999999956 0
0.400000004 -0.03333333508 0
0.3866666556 -0.03333333508 0
0.3733333348 -0.03333333508 0
0.3600000144 -0.03333333508 0
0.346666664 -0.03333333508 0
0.3333333432 -0.03333333508 0
0.3199999928 -0.03333333508 0
0.3066666724 -0.03333333508 0
0.293333322 -0.03333333508 0
0.2800000012 -0.03333333508 0
0.2666666804 -0.03333333508 0
0.25333333 -0.03333333508 0
0.2399999948 -0.03333333508 0
0.226666674 -0.03333333508 0
0.2133333384 -0.03333333508 0
0.2000000028 -0.03333333508 0
0.1866666676 -0.03333333508 0
0.173333332 -0.03333333508 0
0.1599999964 -0.03333333508 0
0.1466666608 -0.03333333508 0
0.1333333404 -0.03333333508 0
0.1199999972 -0.03333333508 0
0.1066666692 -0.03333333508 0
0.0933333336 -0.03333333508 0
0.0799999984 -0.03333333508 0
0.06666667 -0.03333333508 0
0.0533333348 -0.03333333508 0
0.03999999912 -0.03333333508 0
0.02666666732 -0.03333333508 0
0.01333333364 -0.03333333508 0
0.0 -0.03333333508 0
0.400000004 -0.0466666668 0
0.3866666556 -0.0466666668 0
0.3733333348 -0.0466666668 0
0.3600000144 -0.0466666668 0
0.346666664 -0.0466666668 0
0.3333333432 -0.0466666668 0
0.3199999928 -0.0466666668 0
0.3066666724 -0.0466666668 0
0.293333322 -0.0466666668 0
0.2800000012 -0.0466666668 0
0.2666666804 -0.0466666668 0
0.25333333 -0.0466666668 0
0.2399999948 -0.0466666668 0
0.226666674 -0.0466666668 0
0.2133333384 -0.0466666668 0
0.2000000028 -0.0466666668 0
0.1866666676 -0.0466666668 0
0.173333332 -0.0466666668 0
0.1599999964 -0.0466666668 0
0.1466666608 -0.0466666668 0
0.1333333404 -0.0466666668 0
0.1199999972 -0.0466666668 0
0.1066666692 -0.0466666668 0
0.0933333336 -0.0466666668 0
0.0799999984 -0.0466666668 0
0.06666667 -0.0466666668 0
0.0533333348 -0.0466666668 0
0.03999999912 -0.0466666668 0
0.02666666732 -0.0466666668 0
0.01333333364 -0.0466666668 0
0.0 -0.0466666668 0
0.400000004 -0.0599999988 0
0.3866666556 -0.0599999988 0
0.3733333348 -0.0599999988 0
0.3600000144 -0.0599999988 0
0.346666664 -0.0599999988 0
0.3333333432 -0.0599999988 0
0.3199999928 -0.0599999988 0
0.3066666724 -0.0599999988 0
0.293333322 -0.0599999988 0
0.2800000012 -0.0599999988 0
0.2666666804 -0.0599999988 0
0.25333333 -0.0599999988 0
0.2399999948 -0.0599999988 0
0.226666674 -0.0599999988 0
0.2133333384 -0.0599999988 0
0.2000000028 -0.0599999988 0
0.1866666676 -0.0599999988 0
0.173333332 -0.0599999988 0
0.1599999964 -0.0599999988 0
0.1466666608 -0.0599999988 0
0.1333333404 -0.0599999988 0
0.1199999972 -0.0599999988 0
0.1066666692 -0.0599999988 0
0.0933333336 -0.0599999988 0
0.0799999984 -0.0599999988 0
0.06666667 -0.0599999988 0
0.0533333348 -0.0599999988 0
0.03999999912 -0.0599999988 0
0.02666666732 -0.0599999988 0
0.01333333364 -0.0599999988 0
0.0 -0.0599999988 0
0.400000004 -0.0733333304 0
0.3866666556 -0.0733333304 0
0.3733333348 -0.0733333304 0
0.3600000144 -0.0733333304 0
0.346666664 -0.0733333304 0
0.3333333432 -0.0733333304 0
0.3199999928 -0.0733333304 0
0.3066666724 -0.0733333304 0
0.293333322 -0.0733333304 0
0.2800000012 -0.0733333304 0
0.2666666804 -0.0733333304 0
0.25333333 -0.0733333304 0
0.2399999948 -0.0733333304 0
0.226666674 -0.0733333304 0
0.2133333384 -0.0733333304 0
0.2000000028 -0.0733333304 0
0.1866666676 -0.0733333304 0
0.173333332 -0.0733333304 0
0.1599999964 -0.0733333304 0
0.1466666608 -0.0733333304 0
0.1333333404 -0.0733333304 0
0.1199999972 -0.0733333304 0
0.1066666692 -0.0733333304 0
0.0933333336 -0.0733333304 0
0.0799999984 -0.0733333304 0
0.06666667 -0.0733333304 0
0.0533333348 -0.0733333304 0
0.03999999912 -0.0733333304 0
0.02666666732 -0.0733333304 0
0.01333333364 -0.0733333304 0
0.0 -0.0733333304 0
0.400000004 -0.086666666 0
0.3866666556 -0.086666666 0
0.3733333348 -0.086666666 0
0.3600000144 -0.086666666 0
0.346666664 -0.086666666 0
0.3333333432 -0.086666666 0
0.3199999928 -0.086666666 0
0.3066666724 -0.086666666 0
0.293333322 -0.086666666 0
0.2800000012 -0.086666666 0
0.2666666804 -0.086666666 0
0.25333333 -0.086666666 0
0.2399999948 -0.086666666 0
0.226666674 -0.086666666 0
0.2133333384 -0.086666666 0
0.2000000028 -0.086666666 0
0.1866666676 -0.086666666 0
0.173333332 -0.086666666 0
0.1599999964 -0.086666666 0
0.1466666608 -0.086666666 0
0.1333333404 -0.086666666 0
0.1199999972 -0.086666666 0
0.1066666692 -0.086666666 0
0.0933333336 -0.086666666 0
0.0799999984 -0.086666666 0
0.06666667 -0.086666666 0
0.0533333348 -0.086666666 0
0.03999999912 -0.086666666 0
0.02666666732 -0.086666666 0
0.01333333364 -0.086666666 0
0.0 -0.086666666 0
0.400000004 -0.1000000016 0
0.3866666556 -0.1000000016 0
0.3733333348 -0.1000000016 0
0.3600000144 -0.1000000016 0
0.346666664 -0.1000000016 0
0.3333333432 -0.1000000016 0
0.3199999928 -0.1000000016 0
0.3066666724 -0.1000000016 0
0.293333322 -0.1000000016 0
0.2800000012 -0.1000000016 0
0.2666666804 -0.1000000016 0
0.25333333 -0.1000000016 0
0.2399999948 -0.1000000016 0
0.226666674 -0.1000000016 0
0.2133333384 -0.1000000016 0
0.2000000028 -0.1000000016 0
0.1866666676 -0.1000000016 0
0.173333332 -0.1000000016 0
0.1599999964 -0.1000000016 0
0.1466666608 -0.1000000016 0
0.1333333404 -0.1000000016 0
0.1199999972 -0.1000000016 0
0.1066666692 -0.1000000016 0
0.0933333336 -0.1000000016 0
0.0799999984 -0.1000000016 0
0.06666667 -0.1000000016 0
0.0533333348 -0.1000000016 0
0.03999999912 -0.1000000016 0
0.02666666732 -0.1000000016 0
0.01333333364 -0.1000000016 0
0.0 -0.1000000016 0
0.400000004 -0.1133333372 0
0.3866666556 -0.1133333372 0
0.3733333348 -0.1133333372 0
0.3600000144 -0.1133333372 0
0.346666664 -0.1133333372 0
0.3333333432 -0.1133333372 0
0.3199999928 -0.1133333372 0
0.3066666724 -0.1133333372 0
0.293333322 -0.1133333372 0
0.2800000012 -0.1133333372 0
0.2666666804 -0.1133333372 0
0.25333333 -0.1133333372 0
0.2399999948 -0.1133333372 0
0.226666674 -0.1133333372 0
0.2133333384 -0.1133333372 0
0.2000000028 -0.1133333372 0
0.1866666676 -0.1133333372 0
0.173333332 -0.1133333372 0
0.1599999964 -0.1133333372 0
0.1466666608 -0.1133333372 0
0.1333333404 -0.1133333372 0
0.1199999972 -0.1133333372 0
0.1066666692 -0.1133333372 0
0.0933333336 -0.1133333372 0
0.0799999984 -0.1133333372 0
0.06666667 -0.1133333372 0
0.0533333348 -0.1133333372 0
0.03999999912 -0.1133333372 0
0.02666666732 -0.1133333372 0
0.01333333364 -0.1133333372 0
0.0 -0.1133333372 0
0.400000004 -0.1266666652 0
0.3866666556 -0.1266666652 0
0.3733333348 -0.1266666652 0
[...]
POINT_DATA 961
SCALARS Temp float 1
LOOKUP_TABLE default
0.7607623375541065
0.7911500789784953
0.8129630537635502
0.8288286777507828
0.8404586857539087
0.8490268882665554
0.855369004694498
0.8600865956673654
0.863617543496499
0.8662827305492498
0.8683201043178571
0.8699082977174509
0.8711838629278129
0.8722546850104865
0.8732099902963195
0.8741282859564644
0.8750846311654698
0.876157321136614
0.8774349092249861
0.8790242403651075
0.8810602344104472
0.8837187665646419
0.8872330847131434
0.8919171367741836
0.8981968862716738
0.9066547551990715
0.9180929423110844
0.9336260582269499
0.9548222406871442
0.9839572244770275
1.0246415842664427
0.8029329679171026
0.8327299611638659
0.8543087302064112
0.870087534998952
0.881677634512889
0.8902294565167144
0.8965666472338633
0.9012850201183035
0.9048194536080997
0.907489266338656
0.9095316022466468
0.911124715511639
0.9124050234440427
0.9134804068971472
0.9144401606053041
0.9153629028708571
0.9163238195487992
0.9174013317938521
0.9186840989156969
0.9202790235662582
0.9223209903345516
0.9249856605638807
0.9285057602693972
0.9331941467232412
0.9394746738086398
0.9479257469383513
0.9593418494133253
0.9748216476363399
0.9959000781637929
1.0247381326046425
1.0644653572175444
2.777288684093439
2.7817173981039236
2.7940604394809507
2.8054483807602466
2.8148695902994167
2.8223698489691555
2.828246904659523
2.8328223694232606
2.8363815862745025
2.8391614228848834
2.8413535482604653
2.8431120986049643
2.8445619905513886
2.8458066987885546
2.846935178549069
2.8480280558263487
2.849163384972705
2.8504222953798264
2.8518948322037536
2.853686353830126
2.8559248429230455
2.858769372671128
2.862419872663751
2.867127809049494
2.873206104548737
2.881033193246384
2.891036532869448
2.9036118623864517
2.9188189161183713
2.9352960176723855
2.9412114551012056
4.726986648412271
4.729404219131219
4.735338780691121
4.742756136970054
4.749792173723374
4.755896103951667
4.760978074046528
4.765122964774883
4.768471468830207
4.771171945746361
4.773362058036869
4.775163275903724
4.776681099642305
4.778007743463458
4.779225776142647
4.780412114954627
4.781642161807619
4.782994019777916
4.7845528235598875
4.786415194755069
4.788693726184527
4.791521181443499
4.795053485728595
4.799469629901334
4.804964008683253
4.811721538064657
4.8198532112167065
4.829236892428674
4.8391343211906115
4.847055223150154
4.850281872667515
6.670882434993258
6.672169819794392
6.675649525630764
6.680362318782733
6.6853834135738905
6.690104478671378
6.694274919264106
6.697835325370327
6.700819474719397
6.70330122520701
6.705367720778216
6.707106641184694
6.708600991993049
6.709927901361054
6.711159489850642
6.712364826730622
6.713612446749079
6.714973101894737
6.716522538040838
6.718344050238491
6.720530418220121
6.723184515093136
6.726417184112073
6.7303399302930575
6.735047590952539
6.740582228788095
6.746862077874848
6.753550321489923
6.759832912009429
6.764473575135966
6.766190789529619
8.611254205945183
8.612038950758267
8.614210664231315
8.617320968354814
8.62085086764815
8.624386258922714
8.627674145734378
8.630600215659427
8.633137849540903
8.635309630753452
8.63716296013797
8.638755884572024
8.640149573172327
8.641404890592392
8.642581382525576
8.643737664977682
8.644932583838484
8.646226686466598
8.647683652915978
8.649371294247954
8.651361573196292
8.653728818889196
8.65654472542767
8.659868011980112
8.663725237512109
8.66807796168718
8.672771236489478
8.67746531528167
8.681605749690124
8.68449842435482
8.685543955579943
10.549231380558938
10.54973176646229
10.551142738594647
10.553229336692967
10.555697809819048
10.558279797971615
10.560780590146601
10.563085941347268
10.56514636950995
10.566956013912797
10.568535451046356
10.569919792757323
10.57115129660457
10.572275252542394
10.573338032742283
10.574386507308413
10.575468246151061
10.576632036505643
10.577928323970742
10.579409147998994
10.58112702383826
10.583132026236074
10.585465967723092
10.588152302861012
10.591180025429741
10.59448050236258
10.597899164426043
10.601174375749054
10.603946555713172
10.605822553146256
10.60648808561875
12.48530838865561
12.485631269413856
12.486551842840349
12.487941843940309
12.489631834059008
12.491454329160474
12.493274134749255
12.49500019238862
12.496583090260359
12.498005796930647
12.499273520735315
12.500405366876496
12.50142844367646
12.5023741469115
12.503276062253105
12.504168971215966
12.505088521012407
12.506071160195324
12.507153989415245
12.508374147516196
12.509767278157955
12.511364521575773
12.513187317457636
12.51523937171883
12.517495360771225
12.519887228164182
12.522291753125742
12.524527105451154
12.526368667065832
12.527589483047734
12.528017862377604
14.419728085870938
14.419928006445517
14.420502237132489
14.421381423672642
14.422470781175692
14.423671766550093
14.424899428331152
14.426091517097028
14.427209940265207
14.428237353381249
14.42917200021567
14.43002271492313
14.430804983384876
14.431538220410898
14.43224406432362
14.432945416939932
14.433665950574827
14.434429801216377
14.435261190521796
14.43618369966414
14.43721888063265
14.43838385900335
14.439687548672644
14.441125290536355
14.44267207746837
14.444275556263333
14.445851438288722
14.447285359640905
14.448445044997293
14.449203434371837
14.449467626364138
16.35260638588695
16.352711745939065
16.353016122656427
16.35348737957803
16.35408063690976
16.35474771728394
16.35544527367755
16.35613971701056
16.356808785319885
16.357440638651042
16.35803177155793
16.358584688567532
16.35910590291936
16.359604449655333
16.360090877921174
16.36057661689802
16.361073584656367
16.36159389218962
16.36214950468355
16.362751711763465
16.36341024571332
16.364131887438248
16.364918409388146
16.365763857816713
16.366651399452458
16.36755047858731
16.3684155918257
16.36918833921479
16.36980400409601
16.370202383721303
16.370340403722576
18.283996740495546
18.284020381783407
18.284089947455033
18.284201609296137
18.284349728373797
18.28452772832657
18.28472895847729
18.284947362429968
18.285177887946524
18.285416637907723
18.285660842750833
18.285908718721835
18.286159279526185
18.286412144845784
18.286667358941056
18.28692522552291
18.287186158229552
18.287450533695104
18.28771853743894
18.28798999115411
18.288264152110113
18.288539483891526
18.28881340125133
18.28908202620381
18.289339999660758
18.28958044030151
18.289795150843354
18.289975159069943
18.29011161454764
18.290196937455566
18.29022598617556
18.39175038335879
18.39177022609408
18.39182882753184
18.391923551130674
18.392050441100928
18.392204756594438
18.39238152939092
18.392576031636178
18.39278410478888
18.393002326760197
18.393228054537463
18.39345937039159
18.393694974563964
18.393934057139756
18.39417616129475
18.39442104728939
18.39466856172606
18.394918505252633
18.395170495100274
18.39542381755688
18.395677267849692
18.395928982786295
18.396176273344505
18.396415491293038
18.39664196062213
18.39685003260973
18.39703331474321
18.397185105597696
18.397299023622054
18.397369749141486
18.39739373923038
18.499384332395778
18.49940135545839
18.49945177064199
18.499533703305463
18.499644298241915
18.499780056361544
18.499937201747628
18.500112007887548
18.50030105005912
18.50050135676168
18.500710477783812
18.500926477314863
18.501147878124314
18.501373579664563
18.501602758872856
18.501834763127214
18.50206900223757
18.502304836545335
18.502541461633374
18.502777789050743
18.503012324463
18.503243051063613
18.5034673256305
18.503681815185814
18.503882492618384
18.50406472754338
18.50422349500483
18.504353709663587
18.504450665911744
18.504510526201425
18.5045307723386
18.606903921885117
18.6069188101908
18.606962998928434
18.60703511453975
18.607133038457974
18.607254124991897
18.60739544742649
18.60755402640158
18.607727019708697
18.6079118485621
18.608106269417945
18.608308389799408
18.608516643607143
18.608729741378987
18.608946600736044
18.60916626524395
18.609387819219005
18.609610297683737
18.60983259435265
18.610053369508037
18.610270961065357
18.61048330702422
18.610687885129625
18.610881691561225
18.611061267787264
18.611222797680586
18.61136228310396
18.611475795715087
18.611559786652343
18.611611414077625
18.611628836001497
18.714313102276922
18.714326350946873
18.714365739642393
18.71443023208132
18.714518212455445
18.71462762979035
18.714756165956892
18.714901396699094
18.715060933317496
18.71523252375603
18.715414118802308
18.715603897246247
18.715800259230583
18.716001798220216
18.716207253966267
18.71641545313704
18.716625244885492
18.71683543150789
18.717044698185482
18.7172515447994
18.71745422370458
18.717650690975617
18.71783857496731
18.718015178956378
18.71817752084607
18.718322423561325
18.71844665724576
18.718547127709677
18.718621096345824
18.718666403980826
18.71868166567073
18.82161479808908
18.821626776337055
18.821662434833122
18.821720968596964
18.821801110449375
18.82190122871887
18.82201944399131
18.822153743705474
18.8223020879451
18.822462488735397
18.822633067469866
18.822812082473583
18.822997932377202
18.823189142481482
18.823384334429832
18.82358218441054
18.823781376500545
18.823980551541233
18.824178255831185
18.82437289291286
18.82456268219765
18.824745630869764
18.824919521098963
18.82508192553843
18.82523025025887
18.82536181385547
18.825473960603837
18.825564201622424
18.82563037288328
18.825670791068298
18.825684386190797
18.925177260871056
18.92518822558356
18.925220899935393
18.925274640795777
18.92534842721426
18.92544092784807
18.925550583501703
18.925675689530916
18.925814475226556
18.925965165459452
18.926126029056796
18.926295405460294
18.926471713372738
18.926653446544815
18.926839155645865
18.927027420241316
18.92721681671023
18.9274058823524
18.927593079790693
18.92777676475954
18.927955160536996
18.928126344342925
18.928288246287984
18.92843867112903
18.928575339742157
18.92869595629167
18.92879829770267
18.928880319980784
18.928940273244752
18.928976812229568
18.92898908855191
19.021352794808163
19.02136291654481
19.02139310220722
19.021442824482598
19.02151124008696
19.021597237134362
19.021699494479467
19.021816541632447
19.021946818809422
19.022088724760582
19.022240656999987
19.022401036187276
19.022568317306643
19.02274099154476
19.02291757695214
19.023096600974608
19.023276579925398
19.023455995344925
19.02363327094273
19.02380675280142
19.023974695499525
19.024135258464984
19.02428651208315
19.024426461891803
19.02455308656574
19.024664394134223
19.02475849273384
19.02483367133786
19.024888484660757
19.02492183288954
19.02493302717879
19.11013358059675
19.110142988471928
19.11017106174632
19.110217357447745
19.110281162624396
19.11036152819912
19.110457312371192
19.11056722471354
19.11068987210338
19.110823795961686
19.110967505634
19.11111950013285
19.111278280329838
19.111442354729526
19.111610236405177
19.11178043347372
19.111951437497467
19.112121709417824
19.11228966622339
19.112453670552142
19.112612025293686
19.112762976655223
19.112904724478753
19.113035446786213
19.11315333368007
19.11325663419539
19.113343712536448
19.113413110031985
19.11346360873978
19.11349428999687
19.113504581831023
19.191530183316026
19.191538977664404
19.19156523191194
19.191608565552517
19.19166836280804
19.19174379724202
19.191833864075583
19.191937413085693
19.19205318422269
19.192179836838367
19.192315977522
19.192460179316804
19.19261099411608
19.192766960893206
19.192926607072927
19.193088444892872
19.19325096655884
19.19341263748173
19.193571890311894
19.193727121504953
19.193876691962966
19.194018934532536
19.19415216665942
19.19427471421357
19.194384941408728
19.194481289944157
19.19456232410209
19.19462677890908
19.19467360855157
19.194702030154136
19.19471155877628
19.265569620349023
19.26557788165397
19.265602552947307
19.2656433007452
19.265699582870354
19.265770666667027
19.265855653525904
19.26595350380469
19.266063064901324
19.266183094467028
19.266312283853456
19.266449275108023
19.266592673169242
19.26674105560904
19.26689297710548
19.26704697010234
19.267201544974387
19.2673551887196
19.267506364455908
19.267653513045374
19.267795057956114
19.267929415608535
19.268055009199372
19.268170291320267
19.26827377030269
19.26836404315014
19.2684398321338
19.268500022788587
19.268543701407083
19.268570188392136
19.26857906460763
19.33229285219593
19.33230064746035
19.332323932959067
19.332362411142288
19.33241559640164
19.332482828807546
19.332563293107842
19.332656037933965
19.332759998342606
19.33287401453393
19.332996851871297
19.33312721601095
19.333263764714847
19.333405118488002
19.3335498671896
19.33369657378432
19.333843778155668
19.333989999794873
19.33413374126851
19.33427349344514
19.334407743245727
19.33453498575118
19.334653738481943
19.33476256264988
19.334860086432684
19.334945032971454
19.335016250492725
19.335072742786394
19.335113698784703
19.33513851847855
19.335146833170725
19.39175219353936
19.39175958085474
19.391781652024626
19.39181813731744
19.391868595152836
19.391932422677403
19.392008870813417
19.392097059352963
19.392195995433937
19.392304588909255
19.392421669712714
19.392546001463394
19.3926762928349
19.392811208685835
19.392949378119116
19.3930894004213
19.393229851483323
19.39336928936185
19.393506260576736
19.39363930785072
19.393766979786633
19.39388784400202
19.39400050144217
19.39410360628057
19.39419588662641
19.39427616863383
19.39434340169972
19.394396683360995
19.394435283099053
19.394458662903205
19.394466493177887
19.44400722721047
19.444014259033096
19.444035271145612
19.444070015556825
19.444118085264126
19.444178922583045
19.44425183135589
19.444335989077267
19.444430462377007
19.444534219900085
19.444646147630063
19.444765061268235
19.444889717162077
19.445018823670523
19.445151050181213
19.44528503457059
19.44541939145121
19.445552719757337
19.445683611017877
19.445810658807936
19.445932469671853
19.44604767679858
19.446154954133846
19.446253035034303
19.4463407308695
19.446416952087162
19.446480729668735
19.446531235874428
19.44656780381249
19.44658994412275
19.446597357760123
19.489122239817817
19.489128965279917
19.489149064121875
19.48918230541312
19.48922830940588
19.48928655426254
19.48935638621633
19.489437029551887
19.48952759988495
19.489627115198648
19.489734509604666
19.489848644751866
19.489968320349107
19.490092285604877
19.490219248858562
19.49034788607593
19.490476850348124
19.490604780873902
19.49073031258022
19.490852086709218
19.49096876251384
19.491079031163277
19.491181629540485
19.491275357798493
19.491359096262492
19.491431824129236
19.491492638086843
19.491540769969454
19.49157560321349
19.49159668671796
19.49160374537138
19.527161680673263
19.527168147180234
19.527187473691175
19.52721944261323
19.527263695587916
19.52731973907713
19.527386953049206
19.527464599414596
19.527551833690854
19.52764771468279
19.527751217059485
19.527861242005965
19.52797662739163
19.52809615919067
19.528218581491796
19.528342605681072
19.528466920777706
19.52859020335717
19.52871112806765
19.528828378946567
19.528940661569205
19.529046716997073
19.52914533522509
19.529235371806706
19.52931576340773
19.52938554468681
19.529443864781246
19.529490002672155
19.52952338135831
19.52954357966441
19.529550341138187
19.55818738893917
19.558193643213894
19.558212336512362
19.558243261506675
19.55828607635314
19.55834030947239
19.558405367183774
19.558480541040517
19.558565018325705
19.5586578907487
19.558758166139892
19.55886477852442
19.558976597995862
19.559092442070618
19.559211085918488
19.559331271989276
19.55945172089121
19.559571141930423
19.559688244205322
19.559801748374042
19.559910399048725
19.56001297868677
19.560108320702653
19.560195325333986
19.560272974152216
19.56034034557105
19.560396629750667
19.560441142288855
19.560473336739793
19.560492814945732
19.560499334767115
19.582254941311447
19.582261030023428
19.58227922921974
19.582309339200766
19.58235103042731
19.582403847745127
19.5824672172882
19.582540453049766
19.58262276655537
19.58271327486603
19.582811011636604
19.58291493676484
19.58302394603316
19.58313688238316
19.5832525462668
19.583369705548115
19.583487106721076
19.583603485838104
19.583717579963004
19.583828139204357
19.583933939228963
19.584033795055973
19.584126573881797
19.58421121035882
19.584286720331374
19.584352215344293
19.58440691641181
19.584450166519193
19.584481441974322
19.584500361703867
19.584506694168688
19.59941067431547
19.599416644395234
19.59943448948212
19.59946401515332
19.59950490039754
19.599556701477834
19.599618858355193
19.599690700759528
19.59977145731744
19.599860263096424
19.599956170233767
19.60005815729467
19.60016513874757
19.600275976166998
19.600389488644897
19.600504462853593
19.600619664463327
19.600733849302774
19.60084577502189
19.600954213271816
19.601057962267397
19.601155860485793
19.601246799273504
19.60132973770818
19.60140371579994
19.601467868320043
19.601521437806177
19.60156378627091
19.601594405778638
19.60161292705794
19.601619125880575
19.609689634643587
19.609695533363826
19.609713165422185
19.60974233949824
19.60978273960085
19.609833928727113
19.60989535501439
19.609966357528137
19.610046175079102
19.610133953505553
19.61022875605422
19.610329572568652
19.610435328864252
19.610544897882775
19.61065711012953
19.61077076381955
19.610884636398453
19.610997495824492
19.611108112339224
19.611215270719068
19.611317782853046
19.611414501374384
19.611504332132036
19.61158624880332
19.6116593057819
19.6117226516116
19.611775541551715
19.611817348830805
19.611847574781343
19.611865857062647
19.61187197573532
19.613113490310838
19.61311936521159
19.613136926157985
19.613165982853577
19.613206220965264
19.613257205716405
19.613318387950773
19.613389109829022
19.613468613544697
19.61355604852158
19.613650481713453
19.6137509067365
19.613856253211093
19.613965397899157
19.614077175148374
19.61419038706385
19.6143038150608
19.61441623118411
19.614526409912134
19.61463314042931
19.614735239206926
19.61483156361048
19.614921024325614
19.615002599887642
19.615075349466345
19.61513842617038
19.615191089468823
19.615232716296795
19.615262811046378
19.615281013663022
19.615287105621295
