# vtk DataFile Version 2.0
Unstructured Grid Example
ASCII
DATASET UNSTRUCTURED_GRID

POINTS 961 float
0.400000004 0.01999999956 0
0.3866666556 0.01999999956 0
0.3733333348 0.01999999956 0
0.3600000144 0.01999999956 0
0.346666664 0.01999999956 0
0.3333333432 0.01999999956 0
0.3199999928 0.01999999956 0
0.3066666724 0.01999999956 0
0.293333322 0.01999999956 0
0.2800000012 0.01999999956 0
0.2666666804 0.01999999956 0
0.25333333 0.01999999956 0
0.2399999948 0.01999999956 0
0.226666674 0.01999999956 0
0.2133333384 0.01999999956 0
0.2000000028 0.01999999956 0
0.1866666676 0.01999999956 0
0.173333332 0.01999999956 0
0.1599999964 0.01999999956 0
0.1466666608 0.01999999956 0
0.1333333404 0.01999999956 0
0.1199999972 0.01999999956 0
0.1066666692 0.01999999956 0
0.0933333336 0.01999999956 0
0.0799999984 0.01999999956 0
0.06666667 0.01999999956 0
0.0533333348 0.01999999956 0
0.03999999912 0.01999999956 0
0.02666666732 0.01999999956 0
0.01333333364 0.01999999956 0
0.0 0.01999999956 0
0.400000004 0.00666666684 0
0.3866666556 0.00666666684 0
0.3733333348 0.00666666684 0
0.3600000144 0.00666666684 0
0.346666664 0.00666666684 0
0.3333333432 0.00666666684 0
0.3199999928 0.00666666684 0
0.3066666724 0.00666666684 0
0.293333322 0.00666666684 0
0.2800000012 0.00666666684 0
0.2666666804 0.00666666684 0
0.25333333 0.00666666684 0
0.2399999948 0.00666666684 0
0.226666674 0.00666666684 0
0.2133333384 0.00666666684 0
0.2000000028 0.00666666684 0
0.1866666676 0.00666666684 0
0.173333332 0.00666666684 0
0.1599999964 0.00666666684 0
0.1466666608 0.00666666684 0
0.1333333404 0.00666666684 0
0.1199999972 0.00666666684 0
0.1066666692 0.00666666684 0
0.0933333336 0.00666666684 0
0.0799999984 0.00666666684 0
0.06666667 0.00666666684 0
0.0533333348 0.00666666684 0
0.03999999912 0.00666666684 0
0.02666666732 0.00666666684 0
0.01333333364 0.00666666684 0
0.0 0.00666666684 0
0.400000004 -0.00666666684 0
0.3866666556 -0.00666666684 0
0.3733333348 -0.00666666684 0
0.3600000144 -0.00666666684 0
0.346666664 -0.00666666684 0
0.3333333432 -0.00666666684 0
0.3199999928 -0.00666666684 0
0.3066666724 -0.00666666684 0
0.293333322 -0.00666666684 0
0.2800000012 -0.00666666684 0
0.2666666804 -0.00666666684 0
0.25333333 -0.00666666684 0
0.2399999948 -0.00666666684 0
0.226666674 -0.00666666684 0
0.2133333384 -0.00666666684 0
0.2000000028 -0.00666666684 0
0.1866666676 -0.00666666684 0
0.173333332 -0.00666666684 0
0.1599999964 -0.00666666684 0
0.1466666608 -0.00666666684 0
0.1333333404 -0.00666666684 0
0.1199999972 -0.00666666684 0
0.1066666692 -0.00666666684 0
0.0933333336 -0.00666666684 0
0.0799999984 -0.00666666684 0
0.06666667 -0.00666666684 0
0.0533333348 -0.00666666684 0
0.03999999912 -0.00666666684 0
0.02666666732 -0.00666666684 0
0.01333333364 -0.00666666684 0
0.0 -0.00666666684 0
0.400000004 -0.01999999956 0
0.3866666556 -0.01999999956 0
0.3733333348 -0.01999999956 0
0.3600000144 -0.01999999956 0
0.346666664 -0.01999999956 0
0.3333333432 -0.01999999956 0
0.3199999928 -0.01999999956 0
0.3066666724 -0.01999999956 0
0.293333322 -0.01999999956 0
0.2800000012 -0.01999999956 0
0.2666666804 -0.01999999956 0
0.25333333 -0.01999999956 0
0.2399999948 -0.01999999956 0
0.226666674 -0.01999999956 0
0.2133333384 -0.01999999956 0
0.2000000028 -0.01999999956 0
0.1866666676 -0.01999999956 0
0.173333332 -0.01999999956 0
0.1599999964 -0.01999999956 0
0.1466666608 -0.01999999956 0
0.1333333404 -0.01999999956 0
0.1199999972 -0.01999999956 0
0.1066666692 -0.01999999956 0
0.0933333336 -0.01999999956 0
0.0799999984 -0.01999999956 0
0.06666667 -0.01999999956 0
0.0533333348 -0.01999999956 0
0.03999999912 -0.01999999956 0
0.02666666732 -0.01999999956 0
0.01333333364 -0.01999999956 0
0.0 -0.01999999956 0
0.400000004 -0.03333333508 0
0.3866666556 -0.03333333508 0
0.3733333348 -0.03333333508 0
0.3600000144 -0.03333333508 0
0.346666664 -0.03333333508 0
0.3333333432 -0.03333333508 0
0.3199999928 -0.03333333508 0
0.3066666724 -0.03333333508 0
0.293333322 -0.03333333508 0
0.2800000012 -0.03333333508 0
0.2666666804 -0.03333333508 0
0.25333333 -0.03333333508 0
0.2399999948 -0.03333333508 0
0.226666674 -0.03333333508 0
0.2133333384 -0.03333333508 0
0.2000000028 -0.03333333508 0
0.1866666676 -0.03333333508 0
0.173333332 -0.03333333508 0
0.1599999964 -0.03333333508 0
0.1466666608 -0.03333333508 0
0.1333333404 -0.03333333508 0
0.1199999972 -0.03333333508 0
0.1066666692 -0.03333333508 0
0.0933333336 -0.03333333508 0
0.0799999984 -0.03333333508 0
0.06666667 -0.03333333508 0
0.0533333348 -0.03333333508 0
0.03999999912 -0.03333333508 0
0.02666666732 -0.03333333508 0
0.01333333364 -0.03333333508 0
0.0 -0.03333333508 0
0.400000004 -0.0466666668 0
0.3866666556 -0.0466666668 0
0.3733333348 -0.0466666668 0
0.3600000144 -0.0466666668 0
0.346666664 -0.0466666668 0
0.3333333432 -0.0466666668 0
0.3199999928 -0.0466666668 0
0.3066666724 -0.0466666668 0
0.293333322 -0.0466666668 0
0.2800000012 -0.0466666668 0
0.2666666804 -0.0466666668 0
0.25333333 -0.0466666668 0
0.2399999948 -0.0466666668 0
0.226666674 -0.0466666668 0
0.2133333384 -0.0466666668 0
0.2000000028 -0.0466666668 0
0.1866666676 -0.0466666668 0
0.173333332 -0.0466666668 0
0.1599999964 -0.0466666668 0
0.1466666608 -0.0466666668 0
0.1333333404 -0.0466666668 0
0.1199999972 -0.0466666668 0
0.1066666692 -0.0466666668 0
0.0933333336 -0.0466666668 0
0.0799999984 -0.0466666668 0
0.06666667 -0.0466666668 0
0.0533333348 -0.0466666668 0
0.03999999912 -0.0466666668 0
0.02666666732 -0.0466666668 0
0.01333333364 -0.0466666668 0
0.0 -0.0466666668 0
0.400000004 -0.0599999988 0
0.3866666556 -0.0599999988 0
0.3733333348 -0.0599999988 0
0.3600000144 -0.0599999988 0
0.346666664 -0.0599999988 0
0.3333333432 -0.0599999988 0
0.3199999928 -0.0599999988 0
0.3066666724 -0.0599999988 0
0.293333322 -0.0599999988 0
0.2800000012 -0.0599999988 0
0.2666666804 -0.0599999988 0
0.25333333 -0.0599999988 0
0.2399999948 -0.0599999988 0
0.226666674 -0.0599999988 0
0.2133333384 -0.0599999988 0
0.2000000028 -0.0599999988 0
0.1866666676 -0.0599999988 0
0.173333332 -0.0599999988 0
0.1599999964 -0.0599999988 0
0.1466666608 -0.0599999988 0
0.1333333404 -0.0599999988 0
0.1199999972 -0.0599999988 0
0.1066666692 -0.0599999988 0
0.0933333336 -0.0599999988 0
0.0799999984 -0.0599999988 0
0.06666667 -0.0599999988 0
0.0533333348 -0.0599999988 0
0.03999999912 -0.0599999988 0
0.02666666732 -0.0599999988 0
0.01333333364 -0.0599999988 0
0.0 -0.0599999988 0
0.400000004 -0.0733333304 0
0.3866666556 -0.0733333304 0
0.3733333348 -0.0733333304 0
0.3600000144 -0.0733333304 0
0.346666664 -0.0733333304 0
0.3333333432 -0.0733333304 0
0.3199999928 -0.0733333304 0
0.3066666724 -0.0733333304 0
0.293333322 -0.0733333304 0
0.2800000012 -0.0733333304 0
0.2666666804 -0.0733333304 0
0.25333333 -0.0733333304 0
0.2399999948 -0.0733333304 0
0.226666674 -0.0733333304 0
0.2133333384 -0.0733333304 0
0.2000000028 -0.0733333304 0
0.1866666676 -0.0733333304 0
0.173333332 -0.0733333304 0
0.1599999964 -0.0733333304 0
0.1466666608 -0.0733333304 0
0.1333333404 -0.0733333304 0
0.1199999972 -0.0733333304 0
0.1066666692 -0.0733333304 0
0.0933333336 -0.0733333304 0
0.0799999984 -0.0733333304 0
0.06666667 -0.0733333304 0
0.0533333348 -0.0733333304 0
0.03999999912 -0.0733333304 0
0.02666666732 -0.0733333304 0
0.01333333364 -0.0733333304 0
0.0 -0.0733333304 0
0.400000004 -0.086666666 0
0.3866666556 -0.086666666 0
0.3733333348 -0.086666666 0
0.3600000144 -0.086666666 0
0.346666664 -0.086666666 0
0.3333333432 -0.086666666 0
0.3199999928 -0.086666666 0
0.3066666724 -0.086666666 0
0.293333322 -0.086666666 0
0.2800000012 -0.086666666 0
0.2666666804 -0.086666666 0
0.25333333 -0.086666666 0
0.2399999948 -0.086666666 0
0.226666674 -0.086666666 0
0.2133333384 -0.086666666 0
0.2000000028 -0.086666666 0
0.1866666676 -0.086666666 0
0.173333332 -0.086666666 0
0.1599999964 -0.086666666 0
0.1466666608 -0.086666666 0
0.1333333404 -0.086666666 0
0.1199999972 -0.086666666 0
0.1066666692 -0.086666666 0
0.0933333336 -0.086666666 0
0.0799999984 -0.086666666 0
0.06666667 -0.086666666 0
0.0533333348 -0.086666666 0
0.03999999912 -0.086666666 0
0.02666666732 -0.086666666 0
0.01333333364 -0.086666666 0
0.0 -0.086666666 0
0.400000004 -0.1000000016 0
0.3866666556 -0.1000000016 0
0.3733333348 -0.1000000016 0
0.3600000144 -0.1000000016 0
0.346666664 -0.1000000016 0
0.3333333432 -0.1000000016 0
0.3199999928 -0.1000000016 0
0.3066666724 -0.1000000016 0
0.293333322 -0.1000000016 0
0.2800000012 -0.1000000016 0
0.2666666804 -0.1000000016 0
0.25333333 -0.1000000016 0
0.2399999948 -0.1000000016 0
0.226666674 -0.1000000016 0
0.2133333384 -0.1000000016 0
0.2000000028 -0.1000000016 0
0.1866666676 -0.1000000016 0
0.173333332 -0.1000000016 0
0.1599999964 -0.1000000016 0
0.1466666608 -0.1000000016 0
0.1333333404 -0.1000000016 0
0.1199999972 -0.1000000016 0
0.1066666692 -0.1000000016 0
0.0933333336 -0.1000000016 0
0.0799999984 -0.1000000016 0
0.06666667 -0.1000000016 0
0.0533333348 -0.1000000016 0
0.03999999912 -0.1000000016 0
0.02666666732 -0.1000000016 0
0.01333333364 -0.1000000016 0
0.0 -0.1000000016 0
0.400000004 -0.1133333372 0
0.3866666556 -0.1133333372 0
0.3733333348 -0.1133333372 0
0.3600000144 -0.1133333372 0
0.346666664 -0.1133333372 0
0.3333333432 -0.1133333372 0
0.3199999928 -0.1133333372 0
0.3066666724 -0.1133333372 0
0.293333322 -0.1133333372 0
0.2800000012 -0.1133333372 0
0.2666666804 -0.1133333372 0
0.25333333 -0.1133333372 0
0.2399999948 -0.1133333372 0
0.226666674 -0.1133333372 0
0.2133333384 -0.1133333372 0
0.2000000028 -0.1133333372 0
0.1866666676 -0.1133333372 0
0.173333332 -0.1133333372 0
0.1599999964 -0.1133333372 0
0.1466666608 -0.1133333372 0
0.1333333404 -0.1133333372 0
0.1199999972 -0.1133333372 0
0.1066666692 -0.1133333372 0
0.0933333336 -0.1133333372 0
0.0799999984 -0.1133333372 0
0.06666667 -0.1133333372 0
0.0533333348 -0.1133333372 0
0.03999999912 -0.1133333372 0
0.02666666732 -0.1133333372 0
0.01333333364 -0.1133333372 0
0.0 -0.1133333372 0
0.400000004 -0.1266666652 0
0.3866666556 -0.1266666652 0
0.3733333348 -0.1266666652 0
[...]
POINT_DATA 961
SCALARS Temp float 1
LOOKUP_TABLE default
0.7365924956606702
0.7660122585546411
0.7871250045334411
0.8024761216506275
0.8137240943228952
0.8220061826910368
0.8281320452017275
0.8326844428347779
0.8360875323786962
0.838652098104251
0.8406085593491607
0.8421298580870737
0.8433481577997204
0.8443678396552659
0.8452751994885711
0.8461461402743208
0.8470532162830704
0.8480721084970664
0.8492884273990849
0.8508054954886632
0.8527538252214265
0.8553035971658081
0.8586805658959437
0.8631886595293446
0.8692403200070843
0.8773995613146821
0.8884433148095604
0.9034511761071512
0.9239421075524329
0.9521205621625264
0.991483361094452
0.7774590587151451
0.8063072102146214
0.8271931925502134
0.8424602833515866
0.8536696363240451
0.8619358743296555
0.8680569660028172
0.8726101086818357
0.876016551901269
0.8785855671439539
0.880546796986769
0.8820728179322495
0.8832956640689369
0.8843197136566903
0.8852313299169551
0.8861065245879294
0.8870179757933218
0.8880414877133306
0.8892627747704952
0.8907852168348832
0.8927392938903358
0.8952949813737602
0.8986775308469124
0.9031898171988697
0.9092422432032277
0.9173949383422064
0.9284173698653228
0.9433737046674623
0.9637507820175497
0.991641943282698
1.03007922272852
2.690793042405512
2.695078936649777
2.707023850694532
2.718040758128799
2.727150979307034
2.7343994749321485
2.740075004917449
2.74448929879221
2.7479188625527406
2.7505931855233534
2.752697932492156
2.754382381345846
2.7557674838800006
2.756953405042105
2.758026232460196
2.759063975789475
2.7601421462917184
2.7613392289274192
2.7627423426303155
2.7644534404960446
2.7665963960855877
2.769325210472874
2.77283348157213
2.7773647635682703
2.783222198928819
2.790772484416849
2.8004299703714506
2.8125785946121455
2.8272775002889783
2.843210784836116
2.848931001374165
4.5802812948616545
4.582620219828422
4.5883608754370115
4.595534114157461
4.602335561589936
4.608232431714136
4.613138143103299
4.617135207013033
4.62036009236913
4.622956624341773
4.625058217104584
4.626782564966351
4.628231867594656
4.629495436434177
4.6306532264025035
4.631779708843373
4.632947881503272
4.634233356478319
4.63571855895516
4.6374970479041995
4.639677866692643
4.642389620517684
4.645783387839009
4.650032648394106
4.655325894898405
4.661842584755322
4.669690811346989
4.678753271396194
4.688316653026984
4.695972367169879
4.699091535019724
6.4641881361344495
6.465432931904504
6.468797121957881
6.473352216118969
6.478203174320971
6.4827613761922755
6.486784542912321
6.490215454875537
6.493087064463161
6.495471080689239
6.497452033593114
6.4991149371748005
6.500540252526907
6.501802729325632
6.50297225394692
6.504115749137225
6.505299615926603
6.506592403369957
6.50806750300125
6.509805630132858
6.511896706905651
6.514440463148175
6.517544396183569
6.521316714837086
6.525849588400748
6.531184224756118
6.537242126534046
6.543698109967094
6.549765270137823
6.554248103653567
6.555907125443312
8.344726491402128
8.345484711753457
8.347582717688383
8.350586562081068
8.353994002982947
8.357404392435205
8.360573068492293
8.363389623670635
8.365828524880282
8.367911844757352
8.36968565398827
8.371206304878145
8.372533151853382
8.373725238483367
8.374840320019507
8.375935245019935
8.37706708257335
8.37829455204848
8.379679414423935
8.381287445571084
8.383188464631045
8.38545461592204
8.388155540233415
8.391348380461451
8.39505922779226
8.399251352249543
8.403775359823728
8.408303093647538
8.412298654440274
8.415090931179236
8.416100319116401
10.222996582347744
10.223479539423623
10.224841138168667
10.22685401804736
10.229233960520798
10.23172136862687
10.2341279668214
10.236343383975145
10.238319939051003
10.240052167618973
10.241560183364045
10.242878156524183
10.244047162179415
10.2451112007891
10.246115313428104
10.247105019665796
10.248126516520465
10.249227183503043
10.250456014217416
10.251863559432572
10.253500851451594
10.255416588935923
10.257651511044124
10.260228634965387
10.263137679387931
10.266312648804014
10.269604433044268
10.272760340757385
10.275432889646373
10.277242045499296
10.277883964696674
12.099483269923507
12.099794401257007
12.100681289228833
12.102019845924117
12.103646171290428
12.105398294335888
12.10714552756593
12.108799924227997
12.110313859054205
12.11167105211952
12.112876748482309
12.113949640682545
12.114916163647434
12.115806898633917
12.116654544310887
12.117492956544671
12.118356830929581
12.119281643108776
12.120303507396478
12.121458586234528
12.122781610395837
12.124302972181031
12.126043700848042
12.128007692424578
12.130170780982418
12.132467476106521
12.134778924906742
12.136929561056522
12.138702387350815
12.139878083272436
12.140290706231413
13.97442724400944
13.974619346856143
13.975170962823858
13.976015020281263
13.977059869336562
13.978210255712156
13.979384108762098
13.980521353721192
13.981585313431559
13.982559404027935
13.983442136405316
13.984242276321465
13.98497503086476
13.985659412229706
13.98631658698994
13.986968947344206
13.98763963443668
13.988352242292665
13.989130453161593
13.98999733624796
13.990974005588336
13.992077301949806
13.993316131734014
13.994686279553829
13.99616385162561
13.997698500312154
13.999208975349639
14.000584910803804
14.001698577088394
14.002427237844856
14.002681135606483
15.847945662109993
15.848046222684815
15.848336593922134
15.848785722342548
15.849350253114293
15.849983670584724
15.850644162136277
15.85129938422588
15.85192797714785
15.852518685740012
15.853068335566515
15.853579580642167
15.854058964593726
15.854515479678001
15.85495959010894
15.855402617318397
15.855856360210517
15.856332807799708
15.856843810573992
15.857400567116937
15.858012770193909
15.858687256982773
15.859426017890833
15.86022356511354
15.86106387918719
15.861917654220006
15.862741106450212
15.863477950870093
15.864065757805111
15.864446421636108
15.864578356419118
17.720094562808832
17.72011600565927
17.7201790351017
17.720279992034165
17.720413494912133
17.72057328415533
17.720753056097838
17.720947108756622
17.721150736451097
17.721360374203023
17.72157356859526
17.721788838401054
17.72200549004961
17.72222342959997
17.722442984624898
17.722664741893
17.72288939981338
17.723117623463956
17.723349892592402
17.723586331557115
17.72382651227052
17.7240692292078
17.72431224968791
17.724552074497932
17.724783752616617
17.725000838134324
17.725195586580075
17.72535947526514
17.725484067872397
17.725562123353427
17.72558872353514
17.824548717818097
17.824566475093878
17.82461886538035
17.824703382984755
17.824816275494427
17.82495306002454
17.825109061619887
17.8252798646984
17.825461629416814
17.82565125179303
17.825846402528736
17.826045472773146
17.826247467997312
17.826451881238093
17.826658558123587
17.826867562658382
17.827079047747084
17.827293124278484
17.82750972511985
17.82772845930306
17.827948454008133
17.828168189341433
17.82838533339757
17.828596609741414
17.828797728004794
17.82898343391422
17.829147727653744
17.82928428171512
17.82938704654125
17.82945096612717
17.829472667909297
17.928893931292393
17.92890893535862
17.9289533301957
17.929025348073694
17.929122302722153
17.929240914445202
17.92937766405111
17.92952910737908
17.92969211759637
17.92986403014678
17.930042706201135
17.93022652380452
17.930414321553833
17.930605316524016
17.93079900556616
17.93099505903479
17.93119321320666
17.93139315898719
17.931594427233904
17.931796270145288
17.931997540135296
17.93219657359952
17.932391087267067
17.93257811334699
17.932753992175524
17.932914456864104
17.9330548321479
17.933170354923387
17.933256597500982
17.933309937946778
17.933327995117523
18.03313542019821
18.033148318718556
18.033186569377683
18.033248890474816
18.033333310460588
18.033437378082116
18.03355839924991
18.03369365687237
18.033840592571686
18.033996927283923
18.034160728313246
18.034330422430827
18.034504769635056
18.03468281212602
18.034863804210037
18.03504713100304
18.035232222812315
18.03541846486778
18.035605105031
18.03579116130914
18.035975332426542
18.03615591920906
18.036330762988417
18.036497221279653
18.036652190549454
18.03679219684984
18.036913562599416
18.037012647430345
18.037086145296968
18.037131399322856
18.037146683584517
18.13727708990685
18.13728834650129
18.13732178694454
18.13737645752012
18.137450875852505
18.137543169886573
18.13765123915687
18.137772909428048
18.13790606781044
18.138048758965898
18.138199246670375
18.13835603589654
18.13851786397262
18.138683670478866
18.138852548851023
18.139023686048866
18.13919629690169
18.139369553737417
18.139542514992815
18.139714055728103
18.13988280387022
18.14004708927601
18.14020490993158
18.140353930627292
18.14049151801413
18.14061482460401
18.140720923146258
18.140806986107997
18.1408704958867
18.14090945931638
18.140922594603413
18.241321881216972
18.241331837132474
18.241361454685755
18.241410006078887
18.241476349760376
18.2415590242314
18.241656359659974
18.241766587552082
18.241887941068715
18.242018730101773
18.242157394267245
18.24230252724844
18.242452877581602
18.242607332380494
18.242764885006075
18.242924591628974
18.24308552263824
18.243246709750778
18.243407092793813
18.24356546936198
18.243720451040375
18.243870432240882
18.244013574245294
18.244147816090127
18.244270912545584
18.24438050699385
18.244474237529523
18.24454987054
18.244605450898103
18.244639450586888
18.244650895415656
18.341932535398975
18.341941442400294
18.341967968507838
18.34201154451289
18.342071270397774
18.34214597981744
18.342234318564167
18.34233482305383
18.342445995025727
18.34256635949738
18.34269450892584
18.342829126614813
18.342968992536967
18.34311297608438
18.343260015450703
18.34340908742586
18.34355917278221
18.34370921798824
18.34385809703975
18.34400457643072
18.344147286487058
18.344284704022044
18.344415147538566
18.34453679394369
18.344647714911478
18.344745938006124
18.344829529680762
18.34489669498354
18.34494588602663
18.34497590662027
18.3449859998641
18.43574786993422
18.435755915643618
18.435779897231555
18.435819358816108
18.43587357438249
18.435941592847
18.436022294054464
18.436114445491366
18.436216758246864
18.436327931581868
18.436446689167823
18.436571800259266
18.436702087929895
18.436836427660488
18.43697373516892
18.437112946352425
18.437252993768507
18.437392780110116
18.437531152061478
18.437666877159764
18.437798626307366
18.43792496591169
18.438044359872404
18.438155188496413
18.438255781342455
18.438344467606008
18.43841964087796
18.438479833981937
18.438523798200663
18.438550578065996
18.438559572999004
18.52273573600723
18.522743066917187
18.52276493255278
18.52280095922659
18.52285054801176
18.522912906732344
18.522987090535924
18.52307204330745
18.523166639964927
18.523269720788047
18.52338012102217
18.52349668949259
18.52361829781202
18.523743842716748
18.523872239942378
18.524002411820593
18.524133272354113
18.52426370990139
18.524392570378502
18.52451864313936
18.52464065160952
18.524757251828657
18.524867038421398
18.524968563752992
18.52506036673512
18.525141014064772
18.52520915086356
18.525263557288916
18.525303207101285
18.525327321923335
18.52533541535809
18.60286679451452
18.6028735274516
18.602893620015475
18.602926758938626
18.602972439291335
18.603029987544073
18.603098591430143
18.60317733054423
18.603265208680476
18.60336118043299
18.603464175455716
18.603573114652722
18.603686919600104
18.603804517269477
18.603924838201532
18.604046809798255
18.604169347923943
18.604291346640775
18.604411668514874
18.604529137204214
18.60464253390012
18.60475060011803
18.60485204588976
18.604945568180675
18.605029875806665
18.605103723179603
18.605165950142084
18.605215525212287
18.605251589441252
18.605273496370895
18.605280844135905
18.676114415673666
18.676120645754704
18.676139245218238
18.676169945747827
18.67621231273213
18.67626576215676
18.676329582958342
18.676402959936556
18.676484998833374
18.67657474715242
18.67667121421743
18.676773385254712
18.676880230660245
18.676990712226065
18.67710378434848
18.67721839150721
18.677333464739284
18.677447916672108
18.677560637129176
18.677670490622685
18.677776316885705
18.67787693642476
18.677971159846503
18.678057805114936
18.678135719015962
18.678203804905518
18.678261054331564
18.67830658045842
18.678339651373257
18.678359719972264
18.678366447709866
18.7424545892458
18.74246039549484
18.7424777350627
18.742506373427425
18.742545929107806
18.742595886248612
18.742655611667743
18.742724372280037
18.74280135488077
18.74288568266617
18.742976432040123
18.743072644949944
18.74317333784084
18.743277508811893
18.74338414095032
18.743492202854096
18.74360064868987
18.743708417141484
18.743814430904152
18.743917597707267
18.744016813683697
18.744110970671528
18.744198966019823
18.744279718571658
18.744352187199368
18.744415393824717
18.744468448822808
18.74451057721507
18.744541144358426
18.744559678670957
18.744565889507854
18.801866235069767
18.801871684446574
18.801887962173666
18.801914859351527
18.801952034965506
18.801999025440928
18.802055257915647
18.80212006373149
18.802192694351117
18.802272334696205
18.8023581174648
18.80244913406183
18.802544443195707
18.80264307859252
18.802744053806332
18.802846364929536
18.80294899324968
18.80305090704893
18.80315106390787
18.80324841423051
18.803341906548535
18.80343049589138
18.803513153690538
18.80358888253386
18.8036567322862
18.803715819420535
18.803765347727346
18.8038046291717
18.80383310405396
18.803850358604688
18.803856138692094
18.854330371710205
18.854335522053244
18.85435090935708
18.85437634425907
18.854411516727264
18.854456003472926
18.854509278525715
18.85457072390201
18.85463964269867
18.85471527008515
18.85479678573119
18.85488332362967
18.854973980346344
18.855067823053716
18.855163895354607
18.85526122154673
18.855358811138213
18.855455662693082
18.85555076813474
18.855643118017063
18.855731708123542
18.85581554845585
18.85589367302894
18.85596515351959
18.85602911343673
18.856084744598785
18.85613132430815
18.85616823226786
18.856194966714945
18.856211158318835
18.856216580909177
18.89983101318653
18.89983591539194
18.89985056337351
18.899874782688357
18.89990828705324
18.899950684237425
18.90000148470768
18.90006011027004
18.900125905106417
18.9001981450456
18.90027604856845
18.90035878577202
18.900445486309078
18.900535247591367
18.900627141298806
18.90072021873438
18.90081351664973
18.900906062537388
18.900996880335736
18.90108499689838
18.901169449440456
18.9012492948566
18.901323619306652
18.901391550913313
18.901452272384294
18.901505035301096
18.90154917464342
18.901584122799697
18.90160942276403
18.90162473936467
18.901629867853767
18.938354145080133
18.93835884475473
18.938372889007024
18.93839611473452
18.93842825376425
18.938468937670056
18.93851770503971
18.93857400866826
18.93863722510374
18.93870666266595
18.93878157139202
18.93886115134569
18.938944560294118
18.939030921988163
18.9391193331279
18.9392088694707
18.93929859256532
18.939387556050512
18.93947481232566
18.939559419826793
18.939640451013204
18.939717001835103
18.939788201077562
18.939853222270102
18.93991129510187
18.939961718052015
18.940003870943322
18.940037226821268
18.94006136301797
18.940075970456043
18.940080860706498
18.969888383550785
18.96989292228642
18.969906486611354
18.96992892191695
18.969959973632616
18.969999291288943
18.970046434811312
18.970100880689696
18.970162030457825
18.97022921781387
18.970301717790534
18.970378754575535
18.970459508976212
18.970543126723616
18.970628725734752
18.97071540273143
18.97080224059117
18.97088831533183
18.970972703433695
18.971054489646477
18.97113277530925
18.97120668786433
18.971275389968167
18.971338090771912
18.971394056418823
18.971442621441405
18.9714831998722
18.97151529558066
18.971538511805296
18.97155255908508
18.971557261229464
18.994424508008283
18.994428924394356
18.994442123764042
18.994463957669034
18.99449418142679
18.99453245766725
18.994578361955888
18.994631388258426
18.994690956677875
18.99475641994931
18.994827072059977
18.994902155718005
18.99498086965443
18.995062376924125
18.995145812355343
18.995230289504264
18.99531490841264
18.995398763045763
18.995480949040736
18.9955605718523
18.995636755270166
18.995708650926574
18.995775447207926
18.995836380057916
18.995890742803574
18.99593789666593
18.99597728084689
18.99600842178137
18.996030941599315
18.99604456510285
18.996049124983138
19.011955292896367
19.011959623348204
19.01197256633364
19.011993977582108
19.012023619128396
19.01206116252535
19.01210619403041
19.012158219612246
19.012216672200964
19.012280917772557
19.012350263603043
19.012423965500606
19.01250123499315
19.012581247616367
19.01266315047519
19.012746069407235
19.01282911699372
19.012911400280608
19.0129920287908
19.01307012287423
19.013144822335725
19.013215295917313
19.013280750059245
19.01334043936923
19.013393675991228
19.013439839519958
19.013478386406074
19.013508858491157
19.013530890765374
19.013544217719264
19.013548678068243
19.022475784737267
19.022480064196507
19.022492855026034
19.022514015377354
19.022543311184272
19.022580419188156
19.022624931878823
19.022676362243235
19.022734150740426
19.02279767115345
19.022866238634528
19.022939116800735
19.023015524853765
19.02309464585626
19.023175634352043
19.023257623643083
19.02333973393809
19.023421080227983
19.02350078044071
19.023577963899815
19.02365178000675
19.023721407700428
19.023786064125037
19.023845014901806
19.02389758323213
19.02394315946894
19.023981210131733
19.024011286033257
19.02403302963739
19.024046181056796
19.024050582499427
19.025982936725583
19.02598719928054
19.02599993966647
19.02602101682856
19.02605019797904
19.026087161562067
19.02613150211526
19.026182734935308
19.02624030296362
19.026303582563244
19.0263718914959
19.02644449597313
19.026520617753626
19.026599442414987
19.026680126992225
19.02676180729063
19.026843606077914
19.026924641008613
19.02700403282393
19.027080913844035
19.02715443666687
19.027223783618588
19.02728817539013
19.027346881243506
19.027399228027814
19.02744460963865
19.027482495906206
19.027512440589224
19.027534088603474
19.0275471819047
19.027551563845254
