# vtk DataFile Version 2.0
Unstructured Grid Example
ASCII
DATASET UNSTRUCTURED_GRID

POINTS 961 float
0.400000004 0.01999999956 0
0.3866666556 0.01999999956 0
0.3733333348 0.01999999956 0
0.3600000144 0.01999999956 0
0.346666664 0.01999999956 0
0.3333333432 0.01999999956 0
0.3199999928 0.01999999956 0
0.3066666724 0.01999999956 0
0.293333322 0.01999999956 0
0.2800000012 0.01999999956 0
0.2666666804 0.01999999956 0
0.25333333 0.01999999956 0
0.2399999948 0.01999999956 0
0.226666674 0.01999999956 0
0.2133333384 0.01999999956 0
0.2000000028 0.01999999956 0
0.1866666676 0.01999999956 0
0.173333332 0.01999999956 0
0.1599999964 0.01999999956 0
0.1466666608 0.01999999956 0
0.1333333404 0.01999999956 0
0.1199999972 0.01999999956 0
0.1066666692 0.01999999956 0
0.0933333336 0.01999999956 0
0.0799999984 0.01999999956 0
0.06666667 0.01999999956 0
0.0533333348 0.01999999956 0
0.03999999912 0.01999999956 0
0.02666666732 0.01999999956 0
0.01333333364 0.01999999956 0
0.0 0.01999999956 0
0.400000004 0.00666666684 0
0.3866666556 0.00666666684 0
0.3733333348 0.00666666684 0
0.3600000144 0.00666666684 0
0.346666664 0.00666666684 0
0.3333333432 0.00666666684 0
0.3199999928 0.00666666684 0
0.3066666724 0.00666666684 0
0.293333322 0.00666666684 0
0.2800000012 0.00666666684 0
0.2666666804 0.00666666684 0
0.25333333 0.00666666684 0
0.2399999948 0.00666666684 0
0.226666674 0.00666666684 0
0.2133333384 0.00666666684 0
0.2000000028 0.00666666684 0
0.1866666676 0.00666666684 0
0.173333332 0.00666666684 0
0.1599999964 0.00666666684 0
0.1466666608 0.00666666684 0
0.1333333404 0.00666666684 0
0.1199999972 0.00666666684 0
0.1066666692 0.00666666684 0
0.0933333336 0.00666666684 0
0.0799999984 0.00666666684 0
0.06666667 0.00666666684 0
0.0533333348 0.00666666684 0
0.03999999912 0.00666666684 0
0.02666666732 0.00666666684 0
0.01333333364 0.00666666684 0
0.0 0.00666666684 0
0.400000004 -0.00666666684 0
0.3866666556 -0.00666666684 0
0.3733333348 -0.00666666684 0
0.3600000144 -0.00666666684 0
0.346666664 -0.00666666684 0
0.3333333432 -0.00666666684 0
0.3199999928 -0.00666666684 0
0.3066666724 -0.00666666684 0
0.293333322 -0.00666666684 0
0.2800000012 -0.00666666684 0
0.2666666804 -0.00666666684 0
0.25333333 -0.00666666684 0
0.2399999948 -0.00666666684 0
0.226666674 -0.00666666684 0
0.2133333384 -0.00666666684 0
0.2000000028 -0.00666666684 0
0.1866666676 -0.00666666684 0
0.173333332 -0.00666666684 0
0.1599999964 -0.00666666684 0
0.1466666608 -0.00666666684 0
0.1333333404 -0.00666666684 0
0.1199999972 -0.00666666684 0
0.1066666692 -0.00666666684 0
0.0933333336 -0.00666666684 0
0.0799999984 -0.00666666684 0
0.06666667 -0.00666666684 0
0.0533333348 -0.00666666684 0
0.03999999912 -0.00666666684 0
0.02666666732 -0.00666666684 0
0.01333333364 -0.00666666684 0
0.0 -0.00666666684 0
0.400000004 -0.01999999956 0
0.3866666556 -0.01999999956 0
0.3733333348 -0.01999999956 0
0.3600000144 -0.01999999956 0
0.346666664 -0.01999999956 0
0.3333333432 -0.01999999956 0
0.3199999928 -0.01999999956 0
0.3066666724 -0.01999999956 0
0.293333322 -0.01999999956 0
0.2800000012 -0.01999999956 0
0.2666666804 -0.01999999956 0
0.25333333 -0.01999999956 0
0.2399999948 -0.01999999956 0
0.226666674 -0.01999999956 0
0.2133333384 -0.01999999956 0
0.2000000028 -0.01999999956 0
0.1866666676 -0.01999999956 0
0.173333332 -0.01999999956 0
0.1599999964 -0.01999999956 0
0.1466666608 -0.01999999956 0
0.1333333404 -0.01999999956 0
0.1199999972 -0.01999999956 0
0.1066666692 -0.01999999956 0
0.0933333336 -0.01999999956 0
0.0799999984 -0.01999999956 0
0.06666667 -0.01999999956 0
0.0533333348 -0.01999999956 0
0.03999999912 -0.01999999956 0
0.02666666732 -0.01999999956 0
0.01333333364 -0.01999999956 0
0.0 -0.01999999956 0
0.400000004 -0.03333333508 0
0.3866666556 -0.03333333508 0
0.3733333348 -0.03333333508 0
0.3600000144 -0.03333333508 0
0.346666664 -0.03333333508 0
0.3333333432 -0.03333333508 0
0.3199999928 -0.03333333508 0
0.3066666724 -0.03333333508 0
0.293333322 -0.03333333508 0
0.2800000012 -0.03333333508 0
0.2666666804 -0.03333333508 0
0.25333333 -0.03333333508 0
0.2399999948 -0.03333333508 0
0.226666674 -0.03333333508 0
0.2133333384 -0.03333333508 0
0.2000000028 -0.03333333508 0
0.1866666676 -0.03333333508 0
0.173333332 -0.03333333508 0
0.1599999964 -0.03333333508 0
0.1466666608 -0.03333333508 0
0.1333333404 -0.03333333508 0
0.1199999972 -0.03333333508 0
0.1066666692 -0.03333333508 0
0.0933333336 -0.03333333508 0
0.0799999984 -0.03333333508 0
0.06666667 -0.03333333508 0
0.0533333348 -0.03333333508 0
0.03999999912 -0.03333333508 0
0.02666666732 -0.03333333508 0
0.01333333364 -0.03333333508 0
0.0 -0.03333333508 0
0.400000004 -0.0466666668 0
0.3866666556 -0.0466666668 0
0.3733333348 -0.0466666668 0
0.3600000144 -0.0466666668 0
0.346666664 -0.0466666668 0
0.3333333432 -0.0466666668 0
0.3199999928 -0.0466666668 0
0.3066666724 -0.0466666668 0
0.293333322 -0.0466666668 0
0.2800000012 -0.0466666668 0
0.2666666804 -0.0466666668 0
0.25333333 -0.0466666668 0
0.2399999948 -0.0466666668 0
0.226666674 -0.0466666668 0
0.2133333384 -0.0466666668 0
0.2000000028 -0.0466666668 0
0.1866666676 -0.0466666668 0
0.173333332 -0.0466666668 0
0.1599999964 -0.0466666668 0
0.1466666608 -0.0466666668 0
0.1333333404 -0.0466666668 0
0.1199999972 -0.0466666668 0
0.1066666692 -0.0466666668 0
0.0933333336 -0.0466666668 0
0.0799999984 -0.0466666668 0
0.06666667 -0.0466666668 0
0.0533333348 -0.0466666668 0
0.03999999912 -0.0466666668 0
0.02666666732 -0.0466666668 0
0.01333333364 -0.0466666668 0
0.0 -0.0466666668 0
0.400000004 -0.0599999988 0
0.3866666556 -0.0599999988 0
0.3733333348 -0.0599999988 0
0.3600000144 -0.0599999988 0
0.346666664 -0.0599999988 0
0.3333333432 -0.0599999988 0
0.3199999928 -0.0599999988 0
0.3066666724 -0.0599999988 0
0.293333322 -0.0599999988 0
0.2800000012 -0.0599999988 0
0.2666666804 -0.0599999988 0
0.25333333 -0.0599999988 0
0.2399999948 -0.0599999988 0
0.226666674 -0.0599999988 0
0.2133333384 -0.0599999988 0
0.2000000028 -0.0599999988 0
0.1866666676 -0.0599999988 0
0.173333332 -0.0599999988 0
0.1599999964 -0.0599999988 0
0.1466666608 -0.0599999988 0
0.1333333404 -0.0599999988 0
0.1199999972 -0.0599999988 0
0.1066666692 -0.0599999988 0
0.0933333336 -0.0599999988 0
0.0799999984 -0.0599999988 0
0.06666667 -0.0599999988 0
0.0533333348 -0.0599999988 0
0.03999999912 -0.0599999988 0
0.02666666732 -0.0599999988 0
0.01333333364 -0.0599999988 0
0.0 -0.0599999988 0
0.400000004 -0.0733333304 0
0.3866666556 -0.0733333304 0
0.3733333348 -0.0733333304 0
0.3600000144 -0.0733333304 0
0.346666664 -0.0733333304 0
0.3333333432 -0.0733333304 0
0.3199999928 -0.0733333304 0
0.3066666724 -0.0733333304 0
0.293333322 -0.0733333304 0
0.2800000012 -0.0733333304 0
0.2666666804 -0.0733333304 0
0.25333333 -0.0733333304 0
0.2399999948 -0.0733333304 0
0.226666674 -0.0733333304 0
0.2133333384 -0.0733333304 0
0.2000000028 -0.0733333304 0
0.1866666676 -0.0733333304 0
0.173333332 -0.0733333304 0
0.1599999964 -0.0733333304 0
0.1466666608 -0.0733333304 0
0.1333333404 -0.0733333304 0
0.1199999972 -0.0733333304 0
0.1066666692 -0.0733333304 0
0.0933333336 -0.0733333304 0
0.0799999984 -0.0733333304 0
0.06666667 -0.0733333304 0
0.0533333348 -0.0733333304 0
0.03999999912 -0.0733333304 0
0.02666666732 -0.0733333304 0
0.01333333364 -0.0733333304 0
0.0 -0.0733333304 0
0.400000004 -0.086666666 0
0.3866666556 -0.086666666 0
0.3733333348 -0.086666666 0
0.3600000144 -0.086666666 0
0.346666664 -0.086666666 0
0.3333333432 -0.086666666 0
0.3199999928 -0.086666666 0
0.3066666724 -0.086666666 0
0.293333322 -0.086666666 0
0.2800000012 -0.086666666 0
0.2666666804 -0.086666666 0
0.25333333 -0.086666666 0
0.2399999948 -0.086666666 0
0.226666674 -0.086666666 0
0.2133333384 -0.086666666 0
0.2000000028 -0.086666666 0
0.1866666676 -0.086666666 0
0.173333332 -0.086666666 0
0.1599999964 -0.086666666 0
0.1466666608 -0.086666666 0
0.1333333404 -0.086666666 0
0.1199999972 -0.086666666 0
0.1066666692 -0.086666666 0
0.0933333336 -0.086666666 0
0.0799999984 -0.086666666 0
0.06666667 -0.086666666 0
0.0533333348 -0.086666666 0
0.03999999912 -0.086666666 0
0.02666666732 -0.086666666 0
0.01333333364 -0.086666666 0
0.0 -0.086666666 0
0.400000004 -0.1000000016 0
0.3866666556 -0.1000000016 0
0.3733333348 -0.1000000016 0
0.3600000144 -0.1000000016 0
0.346666664 -0.1000000016 0
0.3333333432 -0.1000000016 0
0.3199999928 -0.1000000016 0
0.3066666724 -0.1000000016 0
0.293333322 -0.1000000016 0
0.2800000012 -0.1000000016 0
0.2666666804 -0.1000000016 0
0.25333333 -0.1000000016 0
0.2399999948 -0.1000000016 0
0.226666674 -0.1000000016 0
0.2133333384 -0.1000000016 0
0.2000000028 -0.1000000016 0
0.1866666676 -0.1000000016 0
0.173333332 -0.1000000016 0
0.1599999964 -0.1000000016 0
0.1466666608 -0.1000000016 0
0.1333333404 -0.1000000016 0
0.1199999972 -0.1000000016 0
0.1066666692 -0.1000000016 0
0.0933333336 -0.1000000016 0
0.0799999984 -0.1000000016 0
0.06666667 -0.1000000016 0
0.0533333348 -0.1000000016 0
0.03999999912 -0.1000000016 0
0.02666666732 -0.1000000016 0
0.01333333364 -0.1000000016 0
0.0 -0.1000000016 0
0.400000004 -0.1133333372 0
0.3866666556 -0.1133333372 0
0.3733333348 -0.1133333372 0
0.3600000144 -0.1133333372 0
0.346666664 -0.1133333372 0
0.3333333432 -0.1133333372 0
0.3199999928 -0.1133333372 0
0.3066666724 -0.1133333372 0
0.293333322 -0.1133333372 0
0.2800000012 -0.1133333372 0
0.2666666804 -0.1133333372 0
0.25333333 -0.1133333372 0
0.2399999948 -0.1133333372 0
0.226666674 -0.1133333372 0
0.2133333384 -0.1133333372 0
0.2000000028 -0.1133333372 0
0.1866666676 -0.1133333372 0
0.173333332 -0.1133333372 0
0.1599999964 -0.1133333372 0
0.1466666608 -0.1133333372 0
0.1333333404 -0.1133333372 0
0.1199999972 -0.1133333372 0
0.1066666692 -0.1133333372 0
0.0933333336 -0.1133333372 0
0.0799999984 -0.1133333372 0
0.06666667 -0.1133333372 0
0.0533333348 -0.1133333372 0
0.03999999912 -0.1133333372 0
0.02666666732 -0.1133333372 0
0.01333333364 -0.1133333372 0
0.0 -0.1133333372 0
0.400000004 -0.1266666652 0
0.3866666556 -0.1266666652 0
0.3733333348 -0.1266666652 0
[...]
POINT_DATA 961
SCALARS Temp float 1
LOOKUP_TABLE default
0.7096688684718558
0.7380132591268137
0.7583542049824177
0.7731440702061021
0.7839807297652199
0.7919598821134171
0.7978615961818076
0.8022473355638846
0.8055257561303646
0.8079962847807632
0.809880920766114
0.8113462868102805
0.8125197176760655
0.8135017813252664
0.8143756214437858
0.815214368707382
0.8160879274065393
0.8170692141102388
0.8182407117278326
0.8197019674816198
0.8215787243294862
0.8240349429381646
0.8272881261161585
0.8316310922258945
0.8374612064310165
0.8453218650484251
0.8559615986303756
0.870420538546814
0.8901621228661565
0.917310224287584
0.9552338396805474
0.7490420721594936
0.7768357478457748
0.7969582163367676
0.8116671231130249
0.8224665695766145
0.8304304444244844
0.8363275541324406
0.8407140021120083
0.8439956433579352
0.8464704474012676
0.8483596652583234
0.849829567682935
0.8510073649238113
0.8519936222960334
0.8528715485686872
0.8537143793683282
0.8545921384760086
0.8555778613203506
0.8567541311151301
0.858220550517949
0.8601028313606182
0.8625647368316338
0.865823285265134
0.8701702804422276
0.8760011230444166
0.8838554670271094
0.894474651836461
0.9088839442897851
0.9285158339305685
0.955387143565538
0.9924190815582358
2.592458823482853
2.596587995800693
2.6080961112632246
2.6187100199980553
2.6274868245438734
2.634469851182616
2.639937313510939
2.644189554850556
2.647492982445529
2.6500687056052277
2.652095611274227
2.6537175298648754
2.655051001431522
2.656192539283901
2.657225094190469
2.658223834339599
2.6592615208501758
2.660413779718982
2.6617645550667444
2.663412082564477
2.665475716594928
2.6681038372043995
2.6714829732406
2.6758477830915304
2.6814903346991112
2.688763926827148
2.6980677700772264
2.7097717754970843
2.7239329358799185
2.739283473320733
2.7447944809305187
4.412901987269126
4.415155321574943
4.420685851681558
4.427596412063531
4.434148590140283
4.439829084647913
4.444554490249088
4.448404314459661
4.451510051035534
4.454010281972119
4.4560335596729805
4.457693292095858
4.459087959667744
4.460303626296183
4.461417341822497
4.462500873244609
4.463624567922425
4.464861291904505
4.466290474996847
4.468002273333278
4.470101760791436
4.472712857234521
4.475981133444597
4.48007374173507
4.485172297826746
4.49144971189109
4.499010138799121
4.507740577218151
4.516953807562617
4.5243293126988675
4.527334336833793
6.227968604906966
6.229167766600934
6.232408587942414
6.2367965228609705
6.24146925613141
6.245859694718537
6.249734429898532
6.2530383497845285
6.255803220218279
6.258098148659354
6.260004596429897
6.261604492461026
6.2629753803705706
6.264189302073534
6.265313614665852
6.266412820417283
6.26755091914884
6.2687939801174215
6.270212737710441
6.27188498178783
6.273897371668158
6.276346014814516
6.279334501094246
6.282967104619242
6.287332645082067
6.292470842607607
6.2983060872110155
6.3045251000915306
6.310369760387431
6.314688284887772
6.316286512903886
8.03979101973717
8.04052135395896
8.0425421608546
8.045435361561458
8.048717082739854
8.05200133519385
8.055052417318688
8.057763977567525
8.06011143902137
8.062116092772694
8.063822352897546
8.065284541158269
8.0665598733363
8.067705267029371
8.068776399600917
8.069828075533627
8.070915312085315
8.072094716424282
8.073425825750979
8.074972044666506
8.076800672203156
8.078981246244703
8.081580891132381
8.084654688451263
8.088227801382034
8.09226486658452
8.096621973432706
8.100982981560245
8.10483160040059
8.107521267449691
8.108493576525936
9.849429536494025
9.849894629899506
9.851205830163442
9.853144094778827
9.855435606270968
9.85783027322257
9.860146722762934
9.862278642631397
9.864180122607086
9.865845929103804
9.867295474488646
9.868561716337284
9.869684266794012
9.87070555814812
9.871669026553453
9.872618570045246
9.873598739762947
9.874655226090274
9.875835274038177
9.877187627969999
9.878761494890064
9.880603831788235
9.882753925139626
9.885233984997507
9.888034137671331
9.891090829268599
9.894260426708625
9.897299499134286
9.899873286340512
9.901615661792395
9.902233898902848
11.657351583270295
11.657651090699922
11.65850480975311
11.659793196818555
11.661358356911443
11.663044258892233
11.664725016587042
11.666315926936205
11.667771138755537
11.669075004366213
11.67023261774009
11.671262031842488
11.672188761643897
11.673042318986566
11.67385425732383
11.67465724610195
11.675484764334554
11.676371042564398
11.677350926113423
11.678459305597958
11.679729690725136
11.6811914092519
11.68286476569362
11.684753554744704
11.68683453173558
11.689044634591609
11.691269385576533
11.693339662457538
11.695046421900411
11.69617837681064
11.696575660710556
13.463789331940916
13.46397411867764
13.464504692191019
13.465316442327959
13.466321085461768
13.467426871504397
13.468554757942286
13.469646899663765
13.470667998993608
13.47160212178288
13.47244788104937
13.473213773500822
13.473914504879888
13.47456844947579
13.475196059130619
13.475818967833401
13.47645953179581
13.477140543564028
13.47788488004409
13.47871482622999
13.479650781531607
13.480709025799571
13.48189819155836
13.483214265651801
13.484634271876766
13.486109742755117
13.48756243295809
13.488886040509248
13.489957528725832
13.490658665340847
13.490902984683036
15.268855925796915
15.268952470935355
15.269231213046531
15.26966224494602
15.270203815053017
15.270811133605417
15.271443948724436
15.272071137917766
15.272672166971105
15.273236242370636
15.273760360843003
15.274247138834596
15.27470294393563
15.27513650583756
15.275557974650214
15.275978327928467
15.276409004023659
15.276861624467227
15.277347676584537
15.277878018129073
15.278462053856076
15.279106434359242
15.27981313706041
15.280576930276071
15.281382430842616
15.282201449494217
15.282991842467554
15.283699415407861
15.284264047131046
15.284629775255757
15.284756545677688
17.0726056104009
17.072625881555798
17.072685447645295
17.072780796004324
17.072906762780587
17.073057346270605
17.073226510022145
17.073408804654342
17.073599747498154
17.073795961244265
17.07399514516313
17.07419594017264
17.074397750348982
17.074600560928204
17.07480476588016
17.075011010709122
17.075220049386115
17.07543260379821
17.07564921642077
17.075870085596613
17.076094874831142
17.076322495161172
17.076550863832306
17.076776672859367
17.076995209868212
17.077200315938047
17.077384574177017
17.077539810558175
17.077657926475055
17.077731966766162
17.077757205858052
17.173244042517055
17.173260757933043
17.173310059162343
17.17338954494364
17.173495621264237
17.17362399853063
17.173770209922395
17.173930045987273
17.17409985888204
17.174276716162737
17.17445843747579
17.174643541639927
17.17483114369081
17.17502083190209
17.175212536913307
17.175406401595676
17.175602655390566
17.175801487289178
17.176002913901737
17.17620663808358
17.176411895831734
17.176617296226265
17.17682066177882
17.17701889993296
17.177207935533996
17.177382758366747
17.177537632954646
17.17766650064477
17.177763562681402
17.177823969311895
17.177844484215054
17.273778416462832
17.27379247017449
17.273834040912018
17.273901438696598
17.273992097174514
17.27410288663763
17.274230454640406
17.274371528675836
17.274523149043016
17.274682808007604
17.27484851020454
17.275018763429276
17.27519252364884
17.27536911505192
17.27554813410403
17.27572934631448
17.275912581648058
17.276097626388456
17.276284111735446
17.276471398617808
17.276658460111328
17.276843768555906
17.277025194935238
17.277199945547846
17.27736455424296
17.277514963297364
17.27764671440049
17.277755256974114
17.277836355514804
17.277886542401085
17.277903536781142
17.374213776983407
17.374225788633204
17.374261399486972
17.37431938826556
17.374397877933283
17.37449453794441
17.374606812064787
17.37473212980571
17.374868080906264
17.375012531019742
17.375163685564452
17.375320101641947
17.375480662007032
17.375644525001967
17.375811056143878
17.375979748926376
17.376150141359563
17.37632172805874
17.37649387037751
17.376665706359447
17.37683606366397
17.37700338289538
17.377165657471256
17.377320409313633
17.377464710081362
17.377595267790845
17.37770858688636
17.37780119976629
17.37786995257955
17.377912308212437
17.37792661752062
17.474553913711446
17.474564325481154
17.474595248227384
17.47464577724905
17.47471450776752
17.474799668599932
17.47489927713054
17.475011287918566
17.47513372225884
17.475264760344636
17.47540279979569
17.475546476202013
17.475694653824654
17.47584639564825
17.47600091583635
17.476157520694066
17.4763155443999
17.476474280223798
17.476632910755846
17.476790439976305
17.476945630874322
17.477096955402885
17.47724256109116
17.477380268853693
17.477507606030475
17.477621886585972
17.477720339932635
17.477800283311726
17.477859323851273
17.47789556486579
17.477907785697507
17.57480169578964
17.574810831768367
17.574838003641396
17.574882525102975
17.574943320956024
17.57501901725226
17.57510804840308
17.575208762442912
17.575319517031957
17.575438751234863
17.575565035752447
17.575697095606078
17.575833810073068
17.575974196013124
17.576117375755008
17.576262534288087
17.5764088713807
17.576555549587937
17.57670164193594
17.576846082382623
17.57698762263506
17.577124801102993
17.577255926658715
17.577379088160903
17.57749219027112
17.577593022898473
17.57767936274667
17.57774910144441
17.577800389752863
17.57783178037337
17.57784234975697
17.67174686562676
17.671754966703194
17.671779087409
17.67181869501966
17.671872948348412
17.671940759621535
17.672020869629538
17.672111922925204
17.672212539111836
17.67232136809811
17.672437131777723
17.67255864577161
17.672684824173004
17.672814671517266
17.67294726190195
17.67308170887597
17.6732171309675
17.673352613706793
17.673487171753006
17.673619714052958
17.673749015162365
17.673873697457896
17.673992225601015
17.674102921625952
17.674203999157044
17.674293621485898
17.67436998082477
17.674431393770107
17.674476405285056
17.674503889103832
17.674513131832175
17.7621558400027
17.762163088477347
17.762184689542714
17.762220220397595
17.762269008720324
17.762330175824953
17.76240269014599
17.76248542143995
17.762577193988445
17.7626768289298
17.762783178265455
17.76289514441173
17.763011687229962
17.763131821571463
17.76325460448869
17.76337911485343
17.763504429520392
17.763629596629823
17.763753609266736
17.763875382023393
17.763993733039367
17.76410737529939
17.76421491758987
17.764314881657786
17.764405732998764
17.764485928549476
17.764553978333144
17.764608516934747
17.764648379284736
17.76467267229109
17.764680833923336
17.84599690967558
17.846003448281476
17.846022947376788
17.84605506403746
17.84609924952111
17.846154779816978
17.846220794250698
17.846296334928024
17.846380386742833
17.846471909817847
17.84656986708128
17.846673241318786
17.846781043102084
17.84689231189937
17.84700610906687
17.84712150479716
17.84723756251323
17.84735332099548
17.847467776996517
17.847579870443774
17.847688474256735
17.847792391765054
17.847890361461978
17.847981074349434
17.848063200798276
17.848135429392354
17.848196514938977
17.84824533235735
17.848280932535115
17.84830259416196
17.848309865919422
17.923240615808595
17.92324655874392
17.923264291124575
17.92329352887167
17.923333814852704
17.92338454082022
17.923444975680514
17.92351429450114
17.923591608898256
17.92367599200884
17.923766500884
17.923862191173345
17.92396212522552
17.92406537545665
17.92417102144148
17.924278142308054
17.92438580737352
17.924493065019607
17.9245989321068
17.92470238559446
17.924802357909684
17.924897738413836
17.924987380258152
17.925070116975387
17.92514478555934
17.925210258055806
17.925265479133927
17.925309507072168
17.925341555421085
17.925361031041902
17.925367564707404
17.993859705093982
17.993865145675695
17.993881386091864
17.99390818615097
17.99394515742716
17.993991779245036
17.994047419698298
17.994111357236665
17.994182804035148
17.994260925375507
17.994344857960144
17.99443372253622
17.99452663181537
17.994622695251692
17.994721019019032
17.994820702402116
17.994920833085224
17.995020481090787
17.995118693258195
17.99521448954822
17.995306862312933
17.995394780382394
17.995477196978502
17.99555306515061
17.995621357497747
17.9956810919508
17.99573136140424
17.995771365218005
17.995800440695387
17.995818091402725
17.995824009711995
18.05782911284288
18.057834128907523
18.057849107124262
18.057873840384993
18.05790799231928
18.057951109121927
18.058002635444183
18.058061930679543
18.058128287208582
18.058200945619785
18.058279109861935
18.05836195815874
18.058448650598805
18.058538334774312
18.058630147772675
18.05872321546618
18.058816651215576
18.05890955354424
18.059001004325967
18.059090068453273
18.059175795804563
18.059257226979092
18.059333401641055
18.05940337269274
18.059466223146533
18.05952108732396
18.059567174472313
18.059603793278946
18.05963037599251
18.05964649982996
18.059651903850767
18.11512634687639
18.115131004651623
18.115144916612145
18.11516790080435
18.11519966062048
18.11523979369979
18.115287804170116
18.115343115132962
18.115405083163115
18.115473010446557
18.11554615750901
18.11562375275282
18.11570499967648
18.115789083020122
18.115875172148893
18.115962422419873
18.116049976356045
18.11613696403398
18.116222503945238
18.1163057050421
18.116385670536637
18.11646150463194
18.11653232093309
18.116597255405416
18.11665548089499
18.116706224748594
18.116748787885534
18.116782564152803
18.116807059103838
18.116821906450085
18.116826880910125
18.165730781292307
18.165735138224292
18.16574815422718
18.16576966658292
18.16579940921695
18.165837019528745
18.165882048023246
18.165933968065364
18.16599218764216
18.166056059225543
18.1661248906577
18.166197953599866
18.166274490395125
18.16635372049448
18.16643484478967
18.166517048450974
18.166599503861924
18.16668137294933
18.166761809941733
18.166839965068185
18.16691498957631
18.166986043030388
18.167052301592395
18.16711296988747
18.16716729362325
18.167214574438493
18.167254185549872
18.16728558729458
18.16730834201493
18.16732212693755
18.167326744143963
18.20962462364086
18.20962873048695
18.209641001256244
18.209661287962067
18.209689348001156
18.209724849514586
18.209767379149785
18.20981644985324
18.20987151063563
18.209931954763384
18.209997129254234
18.21006634248041
18.210138870713173
18.210213964688297
18.21029085457641
18.2103687538481
18.21044686344515
18.21052437547913
18.210600477314898
18.210674356398293
18.21074520606588
18.210812233135155
18.210874665962574
18.210931765369132
18.21098283574892
18.211027237790233
18.21106440155251
18.211093839194987
18.211115157020103
18.21112806577078
18.211132388534484
18.246792032087008
18.24679593450377
18.246807595807894
18.246826879239933
18.24685356014356
18.246887330285563
18.246927804282027
18.246974525987874
18.24702697681268
18.24708458269502
18.24714672256058
18.247212735279263
18.247281925940058
18.24735357247083
18.247426931028627
18.247501240571196
18.247575727881504
18.24764961221487
18.2477221102913
18.247792441879056
18.247859836103927
18.24792353916264
18.247982822129877
18.24803699110443
18.248085397138937
18.248127447347024
18.248162616067432
18.24819045552742
18.248210605820642
18.248222803342355
18.248226887211768
18.277219853635096
18.27722359340301
18.277234769626887
18.277253253976603
18.277278835308042
18.2773112232526
18.277350053698726
18.277394894188937
18.277445251197683
18.27750057623148
18.277560273526575
18.277623706522498
18.277690203919263
18.277759066303496
18.277829571809004
18.277900981164215
18.2779725432934
18.278043500607367
18.278113094605875
18.278180571955396
18.27824519110247
18.278306230014365
18.278362993746793
18.278414823967754
18.278461107989763
18.278501288675773
18.278534874201796
18.278561447224636
18.27858067337577
18.278592308367525
18.278596203362827
18.30089726912219
18.300900885119987
18.30091169211431
18.300929567901157
18.30095431117884
18.300985644637247
18.301023219787865
18.301066621676707
18.30111537543899
18.301168951789364
18.301226774179305
18.301288224922082
18.301352651082794
18.30141937108896
18.301487680559017
18.301556857660923
18.301626169091485
18.301694875790343
18.30176223893942
18.301827526353566
18.301890019270893
18.301949020073934
18.302003859653894
18.302053906461914
18.302098574884116
18.30213733428339
18.302169717766493
18.30219533029932
18.302213856163114
18.302225065136316
18.30222881713497
18.317815715727612
18.31781924473064
18.31782979215282
18.31784723995132
18.317871393521454
18.317901984462083
18.317938674981356
18.31798106216472
18.31802868405478
18.31808102474137
18.31813752115888
18.318197568976395
18.318260528370004
18.318325730611974
18.31839248399826
18.3184600793996
18.318527796474974
18.31859490964889
18.31866069435538
18.318724433615763
18.318785424926144
18.318842987944535
18.31889647170203
18.31894526332311
18.318988795953
18.319026557217814
18.319058097328472
18.31908303649971
18.319101071723004
18.319111982342314
18.31911563421756
18.327969224557588
18.327972701914106
18.327983095215913
18.32800028883527
18.32802409205896
18.328054241671808
18.328090406123543
18.32813218954611
18.32817913756497
18.32823074216209
18.328286448267587
18.328345659514195
18.32840774393984
18.32847204056007
18.328537865346945
18.328604516884194
18.328671282707443
18.328737445424494
18.328802289090852
18.32886510588626
18.328925203048982
18.328981910535315
18.329034588135986
18.32908263400087
18.329125492306005
18.329162661378707
18.329193701421904
18.32921824153647
18.329235986106248
18.329246720030397
18.329250312617486
18.331354120505004
18.331357580736412
18.331367922931395
18.331385032254058
18.331408719267827
18.331438722460422
18.33147471233344
18.331516295339004
18.331563019603827
18.331614379719003
18.331669823264445
18.331728756519162
18.331790550140678
18.331854545731318
18.331920061832836
18.331986399614486
18.33205284925327
18.332118696099332
18.33218322709306
18.332245737472117
18.332305537719744
18.332361961213604
18.332414371310403
18.332462169805826
18.332504804516006
18.332541777293468
18.332572651627792
18.33259705953911
18.332614707837422
18.33262538324376
18.33262895619718
