# vtk DataFile Version 2.0
Unstructured Grid Example
ASCII
DATASET UNSTRUCTURED_GRID

POINTS 961 float
0.400000004 0.01999999956 0
0.3866666556 0.01999999956 0
0.3733333348 0.01999999956 0
0.3600000144 0.01999999956 0
0.346666664 0.01999999956 0
0.3333333432 0.01999999956 0
0.3199999928 0.01999999956 0
0.3066666724 0.01999999956 0
0.293333322 0.01999999956 0
0.2800000012 0.01999999956 0
0.2666666804 0.01999999956 0
0.25333333 0.01999999956 0
0.2399999948 0.01999999956 0
0.226666674 0.01999999956 0
0.2133333384 0.01999999956 0
0.2000000028 0.01999999956 0
0.1866666676 0.01999999956 0
0.173333332 0.01999999956 0
0.1599999964 0.01999999956 0
0.1466666608 0.01999999956 0
0.1333333404 0.01999999956 0
0.1199999972 0.01999999956 0
0.1066666692 0.01999999956 0
0.0933333336 0.01999999956 0
0.0799999984 0.01999999956 0
0.06666667 0.01999999956 0
0.0533333348 0.01999999956 0
0.03999999912 0.01999999956 0
0.02666666732 0.01999999956 0
0.01333333364 0.01999999956 0
0.0 0.01999999956 0
0.400000004 0.00666666684 0
0.3866666556 0.00666666684 0
0.3733333348 0.00666666684 0
0.3600000144 0.00666666684 0
0.346666664 0.00666666684 0
0.3333333432 0.00666666684 0
0.3199999928 0.00666666684 0
0.3066666724 0.00666666684 0
0.293333322 0.00666666684 0
0.2800000012 0.00666666684 0
0.2666666804 0.00666666684 0
0.25333333 0.00666666684 0
0.2399999948 0.00666666684 0
0.226666674 0.00666666684 0
0.2133333384 0.00666666684 0
0.2000000028 0.00666666684 0
0.1866666676 0.00666666684 0
0.173333332 0.00666666684 0
0.1599999964 0.00666666684 0
0.1466666608 0.00666666684 0
0.1333333404 0.00666666684 0
0.1199999972 0.00666666684 0
0.1066666692 0.00666666684 0
0.0933333336 0.00666666684 0
0.0799999984 0.00666666684 0
0.06666667 0.00666666684 0
0.0533333348 0.00666666684 0
0.03999999912 0.00666666684 0
0.02666666732 0.00666666684 0
0.01333333364 0.00666666684 0
0.0 0.00666666684 0
0.400000004 -0.00666666684 0
0.3866666556 -0.00666666684 0
0.3733333348 -0.00666666684 0
0.3600000144 -0.00666666684 0
0.346666664 -0.00666666684 0
0.3333333432 -0.00666666684 0
0.3199999928 -0.00666666684 0
0.3066666724 -0.00666666684 0
0.293333322 -0.00666666684 0
0.2800000012 -0.00666666684 0
0.2666666804 -0.00666666684 0
0.25333333 -0.00666666684 0
0.2399999948 -0.00666666684 0
0.226666674 -0.00666666684 0
0.2133333384 -0.00666666684 0
0.2000000028 -0.00666666684 0
0.1866666676 -0.00666666684 0
0.173333332 -0.00666666684 0
0.1599999964 -0.00666666684 0
0.1466666608 -0.00666666684 0
0.1333333404 -0.00666666684 0
0.1199999972 -0.00666666684 0
0.1066666692 -0.00666666684 0
0.0933333336 -0.00666666684 0
0.0799999984 -0.00666666684 0
0.06666667 -0.00666666684 0
0.0533333348 -0.00666666684 0
0.03999999912 -0.00666666684 0
0.02666666732 -0.00666666684 0
0.01333333364 -0.00666666684 0
0.0 -0.00666666684 0
0.400000004 -0.01999999956 0
0.3866666556 -0.01999999956 0
0.3733333348 -0.01999999956 0
0.3600000144 -0.01999999956 0
0.346666664 -0.01999999956 0
0.3333333432 -0.01999999956 0
0.3199999928 -0.01999999956 0
0.3066666724 -0.01999999956 0
0.293333322 -0.01999999956 0
0.2800000012 -0.01999999956 0
0.2666666804 -0.01999999956 0
0.25333333 -0.01999999956 0
0.2399999948 -0.01999999956 0
0.226666674 -0.01999999956 0
0.2133333384 -0.01999999956 0
0.2000000028 -0.01999999956 0
0.1866666676 -0.01999999956 0
0.173333332 -0.01999999956 0
0.1599999964 -0.01999999956 0
0.1466666608 -0.01999999956 0
0.1333333404 -0.01999999956 0
0.1199999972 -0.01999999956 0
0.1066666692 -0.01999999956 0
0.0933333336 -0.01999999956 0
0.0799999984 -0.01999999956 0
0.06666667 -0.01999999956 0
0.0533333348 -0.01999999956 0
0.03999999912 -0.01999999956 0
0.02666666732 -0.01999999956 0
0.01333333364 -0.01999999956 0
0.0 -0.01999999956 0
0.400000004 -0.03333333508 0
0.3866666556 -0.03333333508 0
0.3733333348 -0.03333333508 0
0.3600000144 -0.03333333508 0
0.346666664 -0.03333333508 0
0.3333333432 -0.03333333508 0
0.3199999928 -0.03333333508 0
0.3066666724 -0.03333333508 0
0.293333322 -0.03333333508 0
0.2800000012 -0.03333333508 0
0.2666666804 -0.03333333508 0
0.25333333 -0.03333333508 0
0.2399999948 -0.03333333508 0
0.226666674 -0.03333333508 0
0.2133333384 -0.03333333508 0
0.2000000028 -0.03333333508 0
0.1866666676 -0.03333333508 0
0.173333332 -0.03333333508 0
0.1599999964 -0.03333333508 0
0.1466666608 -0.03333333508 0
0.1333333404 -0.03333333508 0
0.1199999972 -0.03333333508 0
0.1066666692 -0.03333333508 0
0.0933333336 -0.03333333508 0
0.0799999984 -0.03333333508 0
0.06666667 -0.03333333508 0
0.0533333348 -0.03333333508 0
0.03999999912 -0.03333333508 0
0.02666666732 -0.03333333508 0
0.01333333364 -0.03333333508 0
0.0 -0.03333333508 0
0.400000004 -0.0466666668 0
0.3866666556 -0.0466666668 0
0.3733333348 -0.0466666668 0
0.3600000144 -0.0466666668 0
0.346666664 -0.0466666668 0
0.3333333432 -0.0466666668 0
0.3199999928 -0.0466666668 0
0.3066666724 -0.0466666668 0
0.293333322 -0.0466666668 0
0.2800000012 -0.0466666668 0
0.2666666804 -0.0466666668 0
0.25333333 -0.0466666668 0
0.2399999948 -0.0466666668 0
0.226666674 -0.0466666668 0
0.2133333384 -0.0466666668 0
0.2000000028 -0.0466666668 0
0.1866666676 -0.0466666668 0
0.173333332 -0.0466666668 0
0.1599999964 -0.0466666668 0
0.1466666608 -0.0466666668 0
0.1333333404 -0.0466666668 0
0.1199999972 -0.0466666668 0
0.1066666692 -0.0466666668 0
0.0933333336 -0.0466666668 0
0.0799999984 -0.0466666668 0
0.06666667 -0.0466666668 0
0.0533333348 -0.0466666668 0
0.03999999912 -0.0466666668 0
0.02666666732 -0.0466666668 0
0.01333333364 -0.0466666668 0
0.0 -0.0466666668 0
0.400000004 -0.0599999988 0
0.3866666556 -0.0599999988 0
0.3733333348 -0.0599999988 0
0.3600000144 -0.0599999988 0
0.346666664 -0.0599999988 0
0.3333333432 -0.0599999988 0
0.3199999928 -0.0599999988 0
0.3066666724 -0.0599999988 0
0.293333322 -0.0599999988 0
0.2800000012 -0.0599999988 0
0.2666666804 -0.0599999988 0
0.25333333 -0.0599999988 0
0.2399999948 -0.0599999988 0
0.226666674 -0.0599999988 0
0.2133333384 -0.0599999988 0
0.2000000028 -0.0599999988 0
0.1866666676 -0.0599999988 0
0.173333332 -0.0599999988 0
0.1599999964 -0.0599999988 0
0.1466666608 -0.0599999988 0
0.1333333404 -0.0599999988 0
0.1199999972 -0.0599999988 0
0.1066666692 -0.0599999988 0
0.0933333336 -0.0599999988 0
0.0799999984 -0.0599999988 0
0.06666667 -0.0599999988 0
0.0533333348 -0.0599999988 0
0.03999999912 -0.0599999988 0
0.02666666732 -0.0599999988 0
0.01333333364 -0.0599999988 0
0.0 -0.0599999988 0
0.400000004 -0.0733333304 0
0.3866666556 -0.0733333304 0
0.3733333348 -0.0733333304 0
0.3600000144 -0.0733333304 0
0.346666664 -0.0733333304 0
0.3333333432 -0.0733333304 0
0.3199999928 -0.0733333304 0
0.3066666724 -0.0733333304 0
0.293333322 -0.0733333304 0
0.2800000012 -0.0733333304 0
0.2666666804 -0.0733333304 0
0.25333333 -0.0733333304 0
0.2399999948 -0.0733333304 0
0.226666674 -0.0733333304 0
0.2133333384 -0.0733333304 0
0.2000000028 -0.0733333304 0
0.1866666676 -0.0733333304 0
0.173333332 -0.0733333304 0
0.1599999964 -0.0733333304 0
0.1466666608 -0.0733333304 0
0.1333333404 -0.0733333304 0
0.1199999972 -0.0733333304 0
0.1066666692 -0.0733333304 0
0.0933333336 -0.0733333304 0
0.0799999984 -0.0733333304 0
0.06666667 -0.0733333304 0
0.0533333348 -0.0733333304 0
0.03999999912 -0.0733333304 0
0.02666666732 -0.0733333304 0
0.01333333364 -0.0733333304 0
0.0 -0.0733333304 0
0.400000004 -0.086666666 0
0.3866666556 -0.086666666 0
0.3733333348 -0.086666666 0
0.3600000144 -0.086666666 0
0.346666664 -0.086666666 0
0.3333333432 -0.086666666 0
0.3199999928 -0.086666666 0
0.3066666724 -0.086666666 0
0.293333322 -0.086666666 0
0.2800000012 -0.086666666 0
0.2666666804 -0.086666666 0
0.25333333 -0.086666666 0
0.2399999948 -0.086666666 0
0.226666674 -0.086666666 0
0.2133333384 -0.086666666 0
0.2000000028 -0.086666666 0
0.1866666676 -0.086666666 0
0.173333332 -0.086666666 0
0.1599999964 -0.086666666 0
0.1466666608 -0.086666666 0
0.1333333404 -0.086666666 0
0.1199999972 -0.086666666 0
0.1066666692 -0.086666666 0
0.0933333336 -0.086666666 0
0.0799999984 -0.086666666 0
0.06666667 -0.086666666 0
0.0533333348 -0.086666666 0
0.03999999912 -0.086666666 0
0.02666666732 -0.086666666 0
0.01333333364 -0.086666666 0
0.0 -0.086666666 0
0.400000004 -0.1000000016 0
0.3866666556 -0.1000000016 0
0.3733333348 -0.1000000016 0
0.3600000144 -0.1000000016 0
0.346666664 -0.1000000016 0
0.3333333432 -0.1000000016 0
0.3199999928 -0.1000000016 0
0.3066666724 -0.1000000016 0
0.293333322 -0.1000000016 0
0.2800000012 -0.1000000016 0
0.2666666804 -0.1000000016 0
0.25333333 -0.1000000016 0
0.2399999948 -0.1000000016 0
0.226666674 -0.1000000016 0
0.2133333384 -0.1000000016 0
0.2000000028 -0.1000000016 0
0.1866666676 -0.1000000016 0
0.173333332 -0.1000000016 0
0.1599999964 -0.1000000016 0
0.1466666608 -0.1000000016 0
0.1333333404 -0.1000000016 0
0.1199999972 -0.1000000016 0
0.1066666692 -0.1000000016 0
0.0933333336 -0.1000000016 0
0.0799999984 -0.1000000016 0
0.06666667 -0.1000000016 0
0.0533333348 -0.1000000016 0
0.03999999912 -0.1000000016 0
0.02666666732 -0.1000000016 0
0.01333333364 -0.1000000016 0
0.0 -0.1000000016 0
0.400000004 -0.1133333372 0
0.3866666556 -0.1133333372 0
0.3733333348 -0.1133333372 0
0.3600000144 -0.1133333372 0
0.346666664 -0.1133333372 0
0.3333333432 -0.1133333372 0
0.3199999928 -0.1133333372 0
0.3066666724 -0.1133333372 0
0.293333322 -0.1133333372 0
0.2800000012 -0.1133333372 0
0.2666666804 -0.1133333372 0
0.25333333 -0.1133333372 0
0.2399999948 -0.1133333372 0
0.226666674 -0.1133333372 0
0.2133333384 -0.1133333372 0
0.2000000028 -0.1133333372 0
0.1866666676 -0.1133333372 0
0.173333332 -0.1133333372 0
0.1599999964 -0.1133333372 0
0.1466666608 -0.1133333372 0
0.1333333404 -0.1133333372 0
0.1199999972 -0.1133333372 0
0.1066666692 -0.1133333372 0
0.0933333336 -0.1133333372 0
0.0799999984 -0.1133333372 0
0.06666667 -0.1133333372 0
0.0533333348 -0.1133333372 0
0.03999999912 -0.1133333372 0
0.02666666732 -0.1133333372 0
0.01333333364 -0.1133333372 0
0.0 -0.1133333372 0
0.400000004 -0.1266666652 0
0.3866666556 -0.1266666652 0
0.3733333348 -0.1266666652 0
[...]
POINT_DATA 961
SCALARS Temp float 1
LOOKUP_TABLE default
0.7646465571947638
0.7951930579975464
0.817127649994535
0.8330891333239061
0.8447963631006838
0.8534280546982905
0.8598234580786961
0.864586724939612
0.8681576803690259
0.87085869056295
0.8729288674650385
0.874547784248314
0.8758527783123028
0.8769524195135631
0.8779365585251053
0.8788842976121176
0.8798712910317535
0.8809764555516258
0.8822890205757871
0.8839165939215882
0.8859949847713302
0.8887011373313412
0.8922696149704117
0.897016025354983
0.9033684660949115
0.9119121545829802
0.9234530149459462
0.9391107109295169
0.9604603878888869
0.9897878740754387
1.030720757750486
0.8069837138194466
0.8369359429719853
0.8586351204098449
0.8745092758909625
0.8861763406059217
0.8947915250013724
0.9011819450997423
0.9059459753479744
0.9095204205203853
0.9122260738594345
0.9143012383945145
0.9159251054122223
0.9172348755908719
0.9183391134285799
0.9193277372363594
0.9202799598530664
0.9212715616869526
0.9223815848238814
0.9236993637580473
0.9253325627140956
0.9274169535554039
0.9301292632866401
0.9337035280087944
0.9384542557614582
0.9448074193960516
0.9533441934814973
0.9648627391694938
0.9804666827315788
1.0016977670028695
1.0307265114360349
1.0706956777943473
2.789095274668418
2.7935494492619632
2.8059635414327055
2.8174219685378423
2.8269067818375744
2.8344630848590286
2.840389462949665
2.8450086848174294
2.848607224582344
2.851422959590022
2.8536484369764223
2.855438556837138
2.8569189104658346
2.858193583890548
2.8593521040240586
2.860475650212389
2.861642831979594
2.862935355288592
2.86444388329667
2.8662744554069213
2.868555822357505
2.8714479392725383
2.875151759631561
2.8799199416048444
2.8860667789040777
2.893972219254455
2.9040652043952946
2.91674236223745
2.932061841414195
2.9486514322507444
2.954607243082627
4.746391540928778
4.748823754273768
4.754795298808743
4.762261001380519
4.7693465044883885
4.775497503190374
4.780623101696214
4.784808164877554
4.788193778501673
4.790928840293401
4.7931515842908
4.794984040582063
4.796532243997744
4.797888919024959
4.799137127711506
4.8003542735276294
4.801616248800308
4.80300166266073
4.804596182683292
4.8064970004378305
4.808817323687956
4.811690578900284
4.815273393089445
4.819745466022459
4.825301825746572
4.832127757087366
4.840333934057681
4.849796241774379
4.859770527068907
4.867750170491062
4.87100003793412
6.69782125588582
6.699117141266967
6.70262025694404
6.707366101461984
6.712424666274177
6.7171839913274525
6.721391728427053
6.724987772457768
6.728005770644973
6.7305197381159445
6.732617116985976
6.734385949220835
6.735909628341688
6.737265679296056
6.738526622407927
6.739761929695091
6.741040544797991
6.7424336385621935
6.744017388661598
6.745875535082698
6.74810131012379
6.750798031451877
6.754076943960456
6.758049843786605
6.762811620101067
6.768403910278317
6.774743609906772
6.781490881800713
6.78782572381709
6.792503446791461
6.79423412542099
8.645671948118803
8.646462329743777
8.648649931969985
8.65178383999713
8.655342059118498
8.65890798447043
8.662226954779761
8.665183746291753
8.667751335647901
8.669952214393003
8.671833875434094
8.67345456190547
8.674875696382237
8.676158428064259
8.67736260428397
8.678547152838876
8.679771238540912
8.681095732690872
8.682584640978838
8.684306094686633
8.686332356981962
8.688738011210937
8.691594912365774
8.694961768518427
8.698864825631258
8.703264823327034
8.708005183201289
8.712743339196447
8.716920721437988
8.71983834583446
8.720892740426706
10.591077035433882
10.591581352895133
10.593003598712233
10.595107443592543
10.597597389969163
10.60020342259298
10.602729548633928
10.605060674655848
10.607146837803217
10.608981961404602
10.610586582860916
10.611995887026616
10.613252273006426
10.614401213382811
10.61548928701588
10.616563584310335
10.617671902453203
10.618863257188167
10.620188316784837
10.621699326534525
10.62344897248808
10.625487435676064
10.627856523139695
10.630579500939445
10.633644887163342
10.63698314659976
10.640438223576563
10.643746314729219
10.646545097598308
10.648438561568247
10.649110197821823
12.534532254071422
12.534857931869547
12.535786609891975
12.537189251865845
12.538895380642979
12.540736450569531
12.542576360787127
12.544323380506038
12.545927658962459
12.547371917563742
12.548661259052299
12.54981478024482
12.550859644577226
12.551827343032908
12.552751580674084
12.55366727179832
12.554610202124966
12.555616957471521
12.556724766347337
12.557970874486413
12.559390993898312
12.561016268186705
12.562868036091821
12.564949743950894
12.567235579267994
12.56965668850393
12.572088683638222
12.57434820098932
12.576208855069586
12.57744197881081
12.577874616863012
14.476281024201409
14.476482900401873
14.477062840497851
14.477951058636425
14.479052168478841
14.480266980243806
14.481509953574285
14.482718366416698
14.483853785933244
14.48489864708057
14.485851068366781
14.486719828051507
14.487520403464028
14.488272231686441
14.488996992115965
14.489717637757483
14.49045789570135
14.491241954219063
14.492094077788938
14.493037871525136
14.494094878870909
14.495282164918859
14.49660850378045
14.498068982259369
14.499638183849283
14.501263152891568
14.50285878796721
14.504309730691732
14.505482627004904
14.506249421344137
14.50651650126754
16.41643969760527
16.41654632516022
16.416854428566086
16.417331660920283
16.417932841600802
16.418609457081505
16.419317837711038
16.42002411678442
16.420705812700135
16.42135092216639
16.421955823701424
16.422522941489394
16.423058733303677
16.423572195023382
16.42407384634064
16.424575091691842
16.42508782525878
16.42562413134419
16.426195941510528
16.42681449941614
16.427489471477937
16.428227542459123
16.429030344347886
16.42989172181732
16.43079456089189
16.431707932396215
16.432585865865413
16.433369422935375
16.433993329737902
16.434396887132085
16.434536674565027
18.355062326584846
18.355086617073155
18.355158117042805
18.355272959875307
18.355425447167967
18.355608927431984
18.35581666483431
18.356042512324727
18.356281324829975
18.356529111866315
18.356783010780873
18.3570411449264
18.357302434854883
18.357566406397577
18.35783300872803
18.358102448688292
18.358375040880247
18.35865106031521
18.35893058788242
18.35921333717541
18.359498453357972
18.359784283397143
18.360068120312626
18.360345959155385
18.360612309000715
18.36086015346308
18.36108116040057
18.36126622862205
18.3614063925653
18.36149398048365
18.361523791108144
18.463216595992584
18.46323706035639
18.463297515999074
18.463395295253452
18.463526393241562
18.463686005490224
18.463869089417987
18.464070835341353
18.464286998146605
18.46451406605681
18.464749304372283
18.46499070205798
18.46523686443284
18.465486884999947
18.465740208471395
18.465996494468392
18.466255486603544
18.466516879968584
18.466780183480225
18.467044572181635
18.467308726974515
18.467570667263953
18.46782758359142
18.46807570488202
18.468310230962246
18.468525389758867
18.46871466957441
18.46887125865434
18.468988679855922
18.469061539036932
18.469086245789764
18.57124735507704
18.57126498292772
18.571317203434102
18.5714021154196
18.571516821252835
18.571657765792505
18.57182110609902
18.57200304005273
18.57220006094864
18.572409110391707
18.572627647570794
18.57285364298657
18.573085522922813
18.573322087790913
18.573562412967476
18.573805741683977
18.574051377051433
18.574298570153836
18.574546404798728
18.574793678347483
18.575038780055927
18.575279574900065
18.5755133001458
18.575736503111212
18.575945038265665
18.576134160370437
18.576298736263514
18.57643358289747
18.576533911903503
18.576595822455975
18.57661675654696
18.679159974799063
18.67917546003714
18.6792214315536
18.679296492135343
18.67939848501699
18.679524713326764
18.679672188120737
18.679837858548908
18.680018803459724
18.68021235894933
18.680416191376803
18.680628313915896
18.68084706233115
18.681071045676156
18.681299076972287
18.681530092193096
18.681763065290188
18.681996918335482
18.682230429760452
18.682462142582324
18.682690275943862
18.68291264829825
18.683126617918816
18.683329062996275
18.683516410174235
18.683684733956124
18.683829935093122
18.683947995612243
18.684035291997603
18.68408892611788
18.684107020912503
18.78695842574216
18.78697227139227
18.787013443624886
18.787080884237284
18.787172941771864
18.78728751701226
18.787422232474604
18.787574594823802
18.787742138075902
18.787922525801367
18.7881136184776
18.788313499417868
18.788520468686794
18.78873301563872
18.788949772256206
18.789169454049972
18.789390795998123
18.789612483553395
18.789833082817744
18.790050972911086
18.79026428444777
18.790470851762738
18.790668182563543
18.790853462187723
18.79102359510969
18.791175297605903
18.79130524254284
18.791410250625525
18.79148751320358
18.79153481880631
18.791550750136615
18.894645638110593
18.894658220642413
18.894695684914318
18.894757204944256
18.89484147923473
18.894946829361256
18.89507131792491
18.89521286428195
18.89536935166307
18.895538707465132
18.895718961786038
18.89590827577034
18.896104945601223
18.896307389515222
18.89651411794256
18.896723692079146
18.89693467771366
18.89714559457418
18.89735486559294
18.897560769405906
18.897761399858567
18.89795463908186
18.89813814598164
18.89830937351317
18.898465613514684
18.89860407808938
18.898722015237283
18.898816852576097
18.898886357896696
18.8989287973061
18.898943069675944
18.99847680259981
18.998488375464557
18.998522867433557
18.99857961504282
18.998657564012987
18.998755337396982
18.998871319141948
18.99900373745481
18.99915074537401
18.999310483312136
18.99948112849034
18.999660922367188
18.99984817992145
19.00004128613017
19.00023867836111
19.000438818783334
19.000640162842515
19.00084112392408
19.001040038426744
19.00123513437819
19.001424506875153
19.00160610578867
19.001777736117507
19.00193708162791
19.002081748288486
19.002209333714454
19.00231751903984
19.002404177642163
19.002467492506092
19.002506068773048
19.002519027611953
19.094696126193227
19.09470684651105
19.09473882137979
19.094791504031612
19.09486401922655
19.094955211223038
19.09506370400271
19.095187962008968
19.095326351260795
19.095477187983807
19.09563877983034
19.09580945099569
19.095987554022088
19.09617147237428
19.096359611645067
19.096550382554383
19.09674218102227
19.096933365137815
19.097122232834423
19.097307002990565
19.097485802634846
19.09765666467773
19.097817535485433
19.09796630099439
19.09810082665828
19.098219015893047
19.098318883129373
19.098398636799274
19.098456766390132
19.098492124032607
19.098503991433272
19.183309735760663
19.183319720306958
19.183349517435857
19.183398665832776
19.183466422374195
19.18355179649078
19.183653594335947
19.183770463591998
19.183900940348636
19.18404348705389
19.184196526804847
19.18435846577129
19.184527705979644
19.184702651762766
19.184881707235142
19.18506326724316
19.185245706380403
19.185427365551995
19.185606539401864
19.185781466839885
19.185950326752845
19.186111242465635
19.186262293531602
19.186401542174988
19.18652706910729
19.186637022522092
19.18672967651183
19.186803495132636
19.18685719799352
19.18688982050148
19.1869007625739
19.264350217802296
19.26435955621359
19.264387436942535
19.264433462476592
19.264496989035344
19.264577151617257
19.264672896982745
19.264783017161943
19.264906185910775
19.265040988561797
19.265185950680994
19.265339557900163
19.26550026885523
19.265666524048015
19.265836747729438
19.266009344720526
19.266182696166467
19.266355153396397
19.266525032710273
19.266690612860664
19.26685013678889
19.26700182049024
19.267143867106128
19.26727449257931
19.267391957406595
19.267494607810193
19.26758092287986
19.267649564693542
19.267699428560945
19.267729688350872
19.267739832669594
19.337873649132206
19.33788241324792
19.337908587779307
19.337951823759507
19.338011553498944
19.338087009169186
19.338177247905534
19.33828117724885
19.33839758395217
19.338525157731013
19.338662515436187
19.33880821859147
19.338960786069766
19.339118704405728
19.339280432734405
19.339444403875248
19.339609025057598
19.339772677203275
19.339933715141203
19.340090470108137
19.340241255658594
19.340384379314735
19.340518157759256
19.34064094118313
19.340751141354474
19.340847266446445
19.34092795953011
19.340992038376896
19.34103853462817
19.341066728560428
19.341076176509205
19.40395575903971
19.403964009558244
19.403988656182484
19.404029387537676
19.40408569522363
19.404156887864588
19.404242110603903
19.40434036475167
19.40445053095872
19.404571388389872
19.40470163537117
19.404839904983742
19.404984777287922
19.405134790457243
19.405288447795908
19.40544422186392
19.405600558794017
19.40575588151836
19.405908593897493
19.40605708676027
19.406199746630076
19.40633496904645
19.406461174120622
19.40657682939194
19.406680474699044
19.406770751925457
19.406846436864072
19.406906471347497
19.406949994353923
19.40697636920635
19.406985204797756
19.46268777839378
19.46269556960198
19.462718848394402
19.462757332944403
19.462810561724517
19.462877904344705
19.462958577022107
19.46305165804398
19.46315610677979
19.46327077942715
19.463394446907063
19.463525808852406
19.463663505314983
19.463806128311113
19.46395223021878
19.464100330029613
19.464248920203378
19.46439647270036
19.46454144586805
19.464682292913736
19.46481747246838
19.464945462827917
19.4650647774343
19.46517398624095
19.465271737880077
19.465356785365305
19.465428012874945
19.465484462149604
19.465525357679528
19.465550128427594
19.465558424613725
19.514170647205297
19.514178030298755
19.51420009274962
19.514236576205366
19.514287056571444
19.51435095255895
19.5144275382455
19.514515955504102
19.51461522993144
19.514724284031615
19.514841952973487
19.51496699727506
19.515098113995407
19.5152339484307
19.51537310339589
19.515514146930624
19.515655620902695
19.515796048989557
19.515933945458723
19.516067825262382
19.516196215748003
19.516317671323904
19.516430788623964
19.516534226481557
19.51662672585124
19.516707132312952
19.516774418959074
19.51682770849308
19.516866294044767
19.516889656897757
19.516897480061925
19.55851064178452
19.558517667115925
19.558538662651394
19.55857338876804
19.55862145137726
19.558682308831226
19.558755282373806
19.558839566365933
19.55893424192762
19.559038288211237
19.559150596506907
19.559269981881414
19.559395193892726
19.55952492827716
19.559657836771734
19.55979253578679
19.559927616181604
19.560061652564244
19.560193213334863
19.560320871822658
19.560443218667388
19.560558876597074
19.560666515162385
19.5607648694695
19.56085275826597
19.56092910393065
19.56099295237922
19.561043491935337
19.561080070905863
19.561102212378927
19.561109625459046
19.59581304566624
19.59581976418771
19.595839844343597
19.59587306138716
19.59591904515671
19.595977285806974
19.596047142730928
19.596127853189444
19.596218544264424
19.5963182427169
19.596425887826847
19.59654034220697
19.59666040209637
19.596784808950723
19.596912259573323
19.597041415409343
19.597170913081303
19.597299374553906
19.597425417990973
19.59754766953172
19.597664776027656
19.597775419750782
19.597878332668206
19.59797231410989
19.59805624738004
19.598129117792276
19.59819003030806
19.5982382259949
19.598273097205237
19.598294200227603
19.598301264820627
19.62617763250762
19.626184096580598
19.626203417327105
19.626235381613252
19.626279638016456
19.626335701722706
19.62640296235073
19.626480691438275
19.626568053163044
19.626664113166626
19.626767850441748
19.626878167508742
19.626993900356247
19.627113829896338
19.627236692254286
19.627361188446997
19.627485995391808
19.627609776618698
19.62773119363028
19.62784891804757
19.627961644504396
19.628068105197727
19.62816708372946
19.62825743189653
19.62833808514853
19.628408079131887
19.62846656563164
19.628512827248727
19.628546290826296
19.628566538543012
19.62857331621938
19.64969342585217
19.649699689578014
19.649718412239643
19.64974938943685
19.649792283876202
19.64984662969045
19.649911839494727
19.64998721107466
19.650071937233424
19.650165113881975
19.650265751232773
19.650372783503155
19.65048507857631
19.650601449319648
19.650720663943176
19.650841455903606
19.650962535194072
19.651082599387596
19.651200345292715
19.65131448129683
19.65142374030598
19.65152689411433
19.65162276687801
19.651710251220305
19.65178832282343
19.651856055875804
19.651912637784676
19.651957382577557
19.651989743082108
19.6520093209188
19.65201587394346
19.666434330332518
19.66644044951793
19.666458740620516
19.666489005337606
19.666530916258715
19.6665840208071
19.666647747789398
19.666721413558914
19.666804231280068
19.666895318530088
19.666993708020954
19.667098356976258
19.66720815659006
19.66732194323109
19.667438508822524
19.667556610869777
19.667674983906142
19.667792350724405
19.667907434194937
19.66801896970402
19.668125718087275
19.668226479840627
19.668320108315932
19.668405525336276
19.66848173518558
19.668547839304026
19.6686030501679
19.66864670383397
19.668678271286883
19.66869736769989
19.66870375930533
19.676455932966167
19.67646196481715
19.67647999513577
19.67650982922679
19.676551145533896
19.676603499367523
19.67666632916658
19.676738962363554
19.67682062431561
19.676910445626174
19.677007472593132
19.677110676393944
19.677218962422373
19.677331181418005
19.677446139847934
19.677562609994432
19.677679341476807
19.67779507257715
19.67790854213691
19.67801850203468
19.678123730100587
19.67822304422129
19.67831531536261
19.678399482890832
19.678474568207335
19.678539689005007
19.678594072665526
19.678637068310223
19.67866815766957
19.67868696392526
19.67869325825425
19.679792575440757
19.679798578075154
19.67981652114764
19.679846211157432
19.679887328487762
19.679939431064625
19.680001960524905
19.68007424798506
19.68015552286338
19.680244920110603
19.68034149056826
19.680444210090435
19.680551988839817
19.680663682391224
19.68077810211217
19.680894025268163
19.681010206567095
19.681125389513337
19.681238318327345
19.681347750433762
19.681452469367066
19.681551298839224
19.68164311570403
19.681726865180174
19.681801574368556
19.6818663663645
19.681920473496895
19.681963249217745
19.681994178815984
19.682012888123257
19.682019149951834
