# vtk DataFile Version 2.0
Unstructured Grid Example
ASCII
DATASET UNSTRUCTURED_GRID

POINTS 961 float
0.400000004 0.01999999956 0
0.3866666556 0.01999999956 0
0.3733333348 0.01999999956 0
0.3600000144 0.01999999956 0
0.346666664 0.01999999956 0
0.3333333432 0.01999999956 0
0.3199999928 0.01999999956 0
0.3066666724 0.01999999956 0
0.293333322 0.01999999956 0
0.2800000012 0.01999999956 0
0.2666666804 0.01999999956 0
0.25333333 0.01999999956 0
0.2399999948 0.01999999956 0
0.226666674 0.01999999956 0
0.2133333384 0.01999999956 0
0.2000000028 0.01999999956 0
0.1866666676 0.01999999956 0
0.173333332 0.01999999956 0
0.1599999964 0.01999999956 0
0.1466666608 0.01999999956 0
0.1333333404 0.01999999956 0
0.1199999972 0.01999999956 0
0.1066666692 0.01999999956 0
0.0933333336 0.01999999956 0
0.0799999984 0.01999999956 0
0.06666667 0.01999999956 0
0.0533333348 0.01999999956 0
0.03999999912 0.01999999956 0
0.02666666732 0.01999999956 0
0.01333333364 0.01999999956 0
0.0 0.01999999956 0
0.400000004 0.00666666684 0
0.3866666556 0.00666666684 0
0.3733333348 0.00666666684 0
0.3600000144 0.00666666684 0
0.346666664 0.00666666684 0
0.3333333432 0.00666666684 0
0.3199999928 0.00666666684 0
0.3066666724 0.00666666684 0
0.293333322 0.00666666684 0
0.2800000012 0.00666666684 0
0.2666666804 0.00666666684 0
0.25333333 0.00666666684 0
0.2399999948 0.00666666684 0
0.226666674 0.00666666684 0
0.2133333384 0.00666666684 0
0.2000000028 0.00666666684 0
0.1866666676 0.00666666684 0
0.173333332 0.00666666684 0
0.1599999964 0.00666666684 0
0.1466666608 0.00666666684 0
0.1333333404 0.00666666684 0
0.1199999972 0.00666666684 0
0.1066666692 0.00666666684 0
0.0933333336 0.00666666684 0
0.0799999984 0.00666666684 0
0.06666667 0.00666666684 0
0.0533333348 0.00666666684 0
0.03999999912 0.00666666684 0
0.02666666732 0.00666666684 0
0.01333333364 0.00666666684 0
0.0 0.00666666684 0
0.400000004 -0.00666666684 0
0.3866666556 -0.00666666684 0
0.3733333348 -0.00666666684 0
0.3600000144 -0.00666666684 0
0.346666664 -0.00666666684 0
0.3333333432 -0.00666666684 0
0.3199999928 -0.00666666684 0
0.3066666724 -0.00666666684 0
0.293333322 -0.00666666684 0
0.2800000012 -0.00666666684 0
0.2666666804 -0.00666666684 0
0.25333333 -0.00666666684 0
0.2399999948 -0.00666666684 0
0.226666674 -0.00666666684 0
0.2133333384 -0.00666666684 0
0.2000000028 -0.00666666684 0
0.1866666676 -0.00666666684 0
0.173333332 -0.00666666684 0
0.1599999964 -0.00666666684 0
0.1466666608 -0.00666666684 0
0.1333333404 -0.00666666684 0
0.1199999972 -0.00666666684 0
0.1066666692 -0.00666666684 0
0.0933333336 -0.00666666684 0
0.0799999984 -0.00666666684 0
0.06666667 -0.00666666684 0
0.0533333348 -0.00666666684 0
0.03999999912 -0.00666666684 0
0.02666666732 -0.00666666684 0
0.01333333364 -0.00666666684 0
0.0 -0.00666666684 0
0.400000004 -0.01999999956 0
0.3866666556 -0.01999999956 0
0.3733333348 -0.01999999956 0
0.3600000144 -0.01999999956 0
0.346666664 -0.01999999956 0
0.3333333432 -0.01999999956 0
0.3199999928 -0.01999999956 0
0.3066666724 -0.01999999956 0
0.293333322 -0.01999999956 0
0.2800000012 -0.01999999956 0
0.2666666804 -0.01999999956 0
0.25333333 -0.01999999956 0
0.2399999948 -0.01999999956 0
0.226666674 -0.01999999956 0
0.2133333384 -0.01999999956 0
0.2000000028 -0.01999999956 0
0.1866666676 -0.01999999956 0
0.173333332 -0.01999999956 0
0.1599999964 -0.01999999956 0
0.1466666608 -0.01999999956 0
0.1333333404 -0.01999999956 0
0.1199999972 -0.01999999956 0
0.1066666692 -0.01999999956 0
0.0933333336 -0.01999999956 0
0.0799999984 -0.01999999956 0
0.06666667 -0.01999999956 0
0.0533333348 -0.01999999956 0
0.03999999912 -0.01999999956 0
0.02666666732 -0.01999999956 0
0.01333333364 -0.01999999956 0
0.0 -0.01999999956 0
0.400000004 -0.03333333508 0
0.3866666556 -0.03333333508 0
0.3733333348 -0.03333333508 0
0.3600000144 -0.03333333508 0
0.346666664 -0.03333333508 0
0.3333333432 -0.03333333508 0
0.3199999928 -0.03333333508 0
0.3066666724 -0.03333333508 0
0.293333322 -0.03333333508 0
0.2800000012 -0.03333333508 0
0.2666666804 -0.03333333508 0
0.25333333 -0.03333333508 0
0.2399999948 -0.03333333508 0
0.226666674 -0.03333333508 0
0.2133333384 -0.03333333508 0
0.2000000028 -0.03333333508 0
0.1866666676 -0.03333333508 0
0.173333332 -0.03333333508 0
0.1599999964 -0.03333333508 0
0.1466666608 -0.03333333508 0
0.1333333404 -0.03333333508 0
0.1199999972 -0.03333333508 0
0.1066666692 -0.03333333508 0
0.0933333336 -0.03333333508 0
0.0799999984 -0.03333333508 0
0.06666667 -0.03333333508 0
0.0533333348 -0.03333333508 0
0.03999999912 -0.03333333508 0
0.02666666732 -0.03333333508 0
0.01333333364 -0.03333333508 0
0.0 -0.03333333508 0
0.400000004 -0.0466666668 0
0.3866666556 -0.0466666668 0
0.3733333348 -0.0466666668 0
0.3600000144 -0.0466666668 0
0.346666664 -0.0466666668 0
0.3333333432 -0.0466666668 0
0.3199999928 -0.0466666668 0
0.3066666724 -0.0466666668 0
0.293333322 -0.0466666668 0
0.2800000012 -0.0466666668 0
0.2666666804 -0.0466666668 0
0.25333333 -0.0466666668 0
0.2399999948 -0.0466666668 0
0.226666674 -0.0466666668 0
0.2133333384 -0.0466666668 0
0.2000000028 -0.0466666668 0
0.1866666676 -0.0466666668 0
0.173333332 -0.0466666668 0
0.1599999964 -0.0466666668 0
0.1466666608 -0.0466666668 0
0.1333333404 -0.0466666668 0
0.1199999972 -0.0466666668 0
0.1066666692 -0.0466666668 0
0.0933333336 -0.0466666668 0
0.0799999984 -0.0466666668 0
0.06666667 -0.0466666668 0
0.0533333348 -0.0466666668 0
0.03999999912 -0.0466666668 0
0.02666666732 -0.0466666668 0
0.01333333364 -0.0466666668 0
0.0 -0.0466666668 0
0.400000004 -0.0599999988 0
0.3866666556 -0.0599999988 0
0.3733333348 -0.0599999988 0
0.3600000144 -0.0599999988 0
0.346666664 -0.0599999988 0
0.3333333432 -0.0599999988 0
0.3199999928 -0.0599999988 0
0.3066666724 -0.0599999988 0
0.293333322 -0.0599999988 0
0.2800000012 -0.0599999988 0
0.2666666804 -0.0599999988 0
0.25333333 -0.0599999988 0
0.2399999948 -0.0599999988 0
0.226666674 -0.0599999988 0
0.2133333384 -0.0599999988 0
0.2000000028 -0.0599999988 0
0.1866666676 -0.0599999988 0
0.173333332 -0.0599999988 0
0.1599999964 -0.0599999988 0
0.1466666608 -0.0599999988 0
0.1333333404 -0.0599999988 0
0.1199999972 -0.0599999988 0
0.1066666692 -0.0599999988 0
0.0933333336 -0.0599999988 0
0.0799999984 -0.0599999988 0
0.06666667 -0.0599999988 0
0.0533333348 -0.0599999988 0
0.03999999912 -0.0599999988 0
0.02666666732 -0.0599999988 0
0.01333333364 -0.0599999988 0
0.0 -0.0599999988 0
0.400000004 -0.0733333304 0
0.3866666556 -0.0733333304 0
0.3733333348 -0.0733333304 0
0.3600000144 -0.0733333304 0
0.346666664 -0.0733333304 0
0.3333333432 -0.0733333304 0
0.3199999928 -0.0733333304 0
0.3066666724 -0.0733333304 0
0.293333322 -0.0733333304 0
0.2800000012 -0.0733333304 0
0.2666666804 -0.0733333304 0
0.25333333 -0.0733333304 0
0.2399999948 -0.0733333304 0
0.226666674 -0.0733333304 0
0.2133333384 -0.0733333304 0
0.2000000028 -0.0733333304 0
0.1866666676 -0.0733333304 0
0.173333332 -0.0733333304 0
0.1599999964 -0.0733333304 0
0.1466666608 -0.0733333304 0
0.1333333404 -0.0733333304 0
0.1199999972 -0.0733333304 0
0.1066666692 -0.0733333304 0
0.0933333336 -0.0733333304 0
0.0799999984 -0.0733333304 0
0.06666667 -0.0733333304 0
0.0533333348 -0.0733333304 0
0.03999999912 -0.0733333304 0
0.02666666732 -0.0733333304 0
0.01333333364 -0.0733333304 0
0.0 -0.0733333304 0
0.400000004 -0.086666666 0
0.3866666556 -0.086666666 0
0.3733333348 -0.086666666 0
0.3600000144 -0.086666666 0
0.346666664 -0.086666666 0
0.3333333432 -0.086666666 0
0.3199999928 -0.086666666 0
0.3066666724 -0.086666666 0
0.293333322 -0.086666666 0
0.2800000012 -0.086666666 0
0.2666666804 -0.086666666 0
0.25333333 -0.086666666 0
0.2399999948 -0.086666666 0
0.226666674 -0.086666666 0
0.2133333384 -0.086666666 0
0.2000000028 -0.086666666 0
0.1866666676 -0.086666666 0
0.173333332 -0.086666666 0
0.1599999964 -0.086666666 0
0.1466666608 -0.086666666 0
0.1333333404 -0.086666666 0
0.1199999972 -0.086666666 0
0.1066666692 -0.086666666 0
0.0933333336 -0.086666666 0
0.0799999984 -0.086666666 0
0.06666667 -0.086666666 0
0.0533333348 -0.086666666 0
0.03999999912 -0.086666666 0
0.02666666732 -0.086666666 0
0.01333333364 -0.086666666 0
0.0 -0.086666666 0
0.400000004 -0.1000000016 0
0.3866666556 -0.1000000016 0
0.3733333348 -0.1000000016 0
0.3600000144 -0.1000000016 0
0.346666664 -0.1000000016 0
0.3333333432 -0.1000000016 0
0.3199999928 -0.1000000016 0
0.3066666724 -0.1000000016 0
0.293333322 -0.1000000016 0
0.2800000012 -0.1000000016 0
0.2666666804 -0.1000000016 0
0.25333333 -0.1000000016 0
0.2399999948 -0.1000000016 0
0.226666674 -0.1000000016 0
0.2133333384 -0.1000000016 0
0.2000000028 -0.1000000016 0
0.1866666676 -0.1000000016 0
0.173333332 -0.1000000016 0
0.1599999964 -0.1000000016 0
0.1466666608 -0.1000000016 0
0.1333333404 -0.1000000016 0
0.1199999972 -0.1000000016 0
0.1066666692 -0.1000000016 0
0.0933333336 -0.1000000016 0
0.0799999984 -0.1000000016 0
0.06666667 -0.1000000016 0
0.0533333348 -0.1000000016 0
0.03999999912 -0.1000000016 0
0.02666666732 -0.1000000016 0
0.01333333364 -0.1000000016 0
0.0 -0.1000000016 0
0.400000004 -0.1133333372 0
0.3866666556 -0.1133333372 0
0.3733333348 -0.1133333372 0
0.3600000144 -0.1133333372 0
0.346666664 -0.1133333372 0
0.3333333432 -0.1133333372 0
0.3199999928 -0.1133333372 0
0.3066666724 -0.1133333372 0
0.293333322 -0.1133333372 0
0.2800000012 -0.1133333372 0
0.2666666804 -0.1133333372 0
0.25333333 -0.1133333372 0
0.2399999948 -0.1133333372 0
0.226666674 -0.1133333372 0
0.2133333384 -0.1133333372 0
0.2000000028 -0.1133333372 0
0.1866666676 -0.1133333372 0
0.173333332 -0.1133333372 0
0.1599999964 -0.1133333372 0
0.1466666608 -0.1133333372 0
0.1333333404 -0.1133333372 0
0.1199999972 -0.1133333372 0
0.1066666692 -0.1133333372 0
0.0933333336 -0.1133333372 0
0.0799999984 -0.1133333372 0
0.06666667 -0.1133333372 0
0.0533333348 -0.1133333372 0
0.03999999912 -0.1133333372 0
0.02666666732 -0.1133333372 0
0.01333333364 -0.1133333372 0
0.0 -0.1133333372 0
0.400000004 -0.1266666652 0
0.3866666556 -0.1266666652 0
0.3733333348 -0.1266666652 0
[...]
POINT_DATA 961
SCALARS Temp float 1
LOOKUP_TABLE default
2.8970307900326495
3.0179125805942375
3.115052683360739
3.1938300091354708
3.2573425885991734
3.3080732239951907
3.3481573972624243
3.3794756589405384
3.403688869488393
3.4222464862120345
3.436399255889463
3.447213325626338
3.4555920991620335
3.4623072541736453
3.4680332236923426
3.473384824141603
3.478959278182142
3.4853795690758385
3.4933399099054436
3.5036529832255994
3.5172981334901667
3.5354708524719625
3.5596283129267956
3.5915355817084915
3.633305253971927
3.6874377053167957
3.756869433276306
3.845052049372856
3.9561268792905278
4.0953116041275575
4.271618301283743
2.9438935429892616
3.061343406565186
3.157568525900806
3.2358780175946653
3.299137150802872
3.3497305673721103
3.3897467285567666
3.4210395678191508
3.4452534286153504
3.4638271996582133
3.4780047955285025
3.4888481069158694
3.497258111449121
3.5040052952456637
3.509763733969816
3.515148423691224
3.5207569973818225
3.5272128261564486
3.535210208398298
3.5455612745300793
3.5592437644839428
3.5774499022343766
3.6016311917663644
3.633543384234384
3.6752842964240666
3.729330773332186
3.7985804300630104
3.886415800580552
3.99682810898906
4.1347304334337975
4.305659863569475
5.051492463574797
5.071852621812543
5.128180907493244
5.184822987663795
5.2355456076284685
5.278845990284691
5.31480898856319
5.344110935682724
5.367648395953966
5.386369830073104
5.40119405040157
5.412972228544396
5.422475973425088
5.430402361678022
5.437389917216047
5.444041880810174
5.450954315563177
5.458747074254409
5.468095854997626
5.479763632168047
5.494629211333599
5.513709435057521
5.538169952407094
5.569316729972293
5.60855411952515
5.657282155931332
5.716668819387248
5.787120132520041
5.8668257149807514
5.94710616869976
5.976129818047706
7.007684725036256
7.01927482280296
7.048574387813295
7.086614545626475
7.124873542153866
7.159982262397406
7.190688324658581
7.216755334088483
7.23844620429402
7.256264042176328
7.270814301817364
7.282729845777466
7.292633101160015
7.3011214754937885
7.308767623637882
7.316129454795725
7.323766234490737
7.332257717656702
7.342223698835851
7.3543411059849415
7.369355022875693
7.388078799469161
7.411375417317096
7.440108753965944
7.4750431149631815
7.516651136202036
7.564743650731366
7.617714018280197
7.670912216244318
7.712154848598949
7.7285429992950565
8.88808114642583
8.894701934482484
8.912830367500671
8.938092058716215
8.966030630021203
8.99342672854798
9.018598669088865
9.040818715251284
9.05992591124718
9.076084792322419
9.089639311790284
9.101024446614899
9.110714846130083
9.119197860107175
9.126962564372269
9.134499370469404
9.142306158510205
9.150897384445342
9.16081301092887
9.172623811704169
9.186928843786287
9.204339619017178
9.225442670637118
9.250728963203438
9.280470108063637
9.314509190628907
9.351910201833682
9.390385346928966
9.425423797720367
9.450698276499477
9.459951010224048
10.706832356331844
10.711070298537695
10.722921183463106
10.740223533815827
10.760386329695034
10.781196577022648
10.80113921461033
10.819364604623514
10.835504980273196
10.849512698918339
10.861541873654048
10.871867233124147
10.88083159266835
10.888814189428683
10.896213550432158
10.903440282359586
10.910916010594253
10.91907496666885
10.92836501129502
10.939244591496069
10.952171500727323
10.967578366786864
10.985827754273693
11.007138198922533
11.031468421908666
11.058345448904808
11.086626896991996
11.114224505035988
11.138041951251168
11.154419286024122
11.160287849755184
12.474507453511277
12.477316178623433
12.485293037156822
12.497252520059217
12.511668891699502
12.527079774521448
12.542340601823796
12.556694714674569
12.569730995805777
12.581301066097183
12.59144082074517
12.600307887179056
12.608136535851589
12.615207598022753
12.621829804168524
12.628329316269795
12.635044435482582
12.642322449305702
12.6505157390799
12.659974025263221
12.671029210143345
12.683968791823933
12.698992819555281
12.716149629532458
12.735245590487168
12.75572986018308
12.776570771517287
12.79618647342774
12.812536180328392
12.823476396861095
12.827334789808956
14.20007837469487
14.201939736470042
14.207274109698677
14.215407808128434
14.225430485033371
14.236408580984506
14.247546332339274
14.258263014368021
14.2681999412884
14.277188179446021
14.285204283373035
14.292328400031284
14.29871058798098
14.304546300260235
14.310059698878376
14.315492953687098
14.32109942573696
14.327138404257303
14.333869114483969
14.34154153306001
14.35038133901406
14.360566241644143
14.372190746360229
14.385217810957421
14.399417870866404
14.414302956381803
14.429076841336505
14.442639379159035
14.453691441325189
14.460959903943975
14.463499669509083
15.892273207707088
15.893441459770205
15.896809139585375
15.902000567309093
15.908492787712296
15.915726088184751
15.923197317713946
15.930515378619306
15.937418981081397
15.943767661977965
15.94952025906509
15.954710476418951
15.959425121533698
15.963787028127449
15.96794258197598
15.97205301711873
15.976288235734865
15.98082160601138
15.985824181577843
15.991456670327644
15.99785741753048
16.00512479822834
16.01329263782598
16.022298847380117
16.031949601962612
16.04188673055006
16.05157249608129
16.060311469180824
16.06732650180273
16.07188877005116
16.07347343277571
17.559920594052514
17.560531427741125
17.562299734248192
17.565047923289267
17.56852417737615
17.57245169357759
17.576572990500953
17.58067937064069
17.584623702066548
17.588319771032204
17.591734055867178
17.594874573587457
17.597780006488726
17.600510593008597
17.603141046409917
17.6057552557489
17.608442217738137
17.611292424119767
17.61439391100028
17.617827119263815
17.621657719480684
17.6259267073194
17.630637315809125
17.635739328602117
17.64111262656675
17.646554428638357
17.65177713448255
17.656424801210104
17.660113559516677
17.662493192484362
17.663316246299445
19.212029447160887
19.212145238415275
19.212485046227055
19.213027480817043
19.21374086026099
19.214587977549122
19.215530960926056
19.21653524594317
19.21757224103486
19.21862059439914
19.219666389830145
19.22070257248842
19.221727953104722
19.22274603851881
19.223763800471627
19.22479044960675
19.225836234279747
19.226911220965334
19.22802401937716
19.229180410071876
19.230381850819377
19.231623891934277
19.232894568116155
19.23417300933813
19.23542856070345
19.23662091138238
19.237701740534693
19.238618266430034
19.239318698265443
19.239758933176986
19.239909189769104
19.303749101444453
19.303841386959114
19.304113084979917
19.30454950214952
19.305128551746883
19.305823730195975
19.306607300726306
19.3074530764073
19.308338494397837
19.309245814915755
19.310162577966857
19.31108144361692
19.311999628193295
19.312918111853108
19.313840708270032
19.314773067815015
19.315721654687444
19.31669268684199
19.31769103595728
19.318719081471954
19.319775529520303
19.320854252095195
19.321943223630655
19.323023758996403
19.32407024968028
19.325050707968547
19.32592836612929
19.326664451372352
19.327222005078387
19.327570252709013
19.32768872955657
19.3949621855594
19.395036370995328
19.395255323523674
19.395608718242325
19.39608085519526
19.396652573223065
19.397303374741526
19.398013378090717
19.398764885352115
19.399543401132767
19.400338148501636
19.401142116209204
19.401951760421163
19.40276647782721
19.403587915188332
19.404419179287032
19.405263994700114
19.406125816742787
19.407006917277638
19.407907458934492
19.408824586339925
19.40975159618404
19.410677255192482
19.411585423813676
19.412455106695404
19.41326111368198
19.413975437277294
19.414569354160296
19.415016102717704
19.415293787609897
19.41538802221583
19.485731996254952
19.485791834740823
19.485968778253756
19.486255424301735
19.486640414128075
19.487109697989954
19.48764798192211
19.48824010814781
19.488872226794903
19.48953261901933
19.490212181357126
19.490904561812236
19.49160601662168
19.492315063015152
19.49303197116507
19.49375814808456
19.49449545997335
19.49524550941409
19.496008895224307
19.496784481092337
19.497568708195704
19.49835501017086
19.49913338564702
19.4998902451835
19.50060860101644
19.50126870562466
19.501849173509168
19.502328551443746
19.502687208695303
19.502909305169553
19.502984530565666
19.576114184470956
19.576162343374452
19.576304946869644
19.576536584372207
19.576848894971068
19.577231428823353
19.5776726553376
19.578160953026767
19.578685485544494
19.57923685148557
19.579807503947766
19.580391912653344
19.580986506160897
19.581589442156307
19.58220023323571
19.582819269962897
19.583447282983617
19.584084763745334
19.584731374748305
19.5853853787888
19.58604312243439
19.586698624418613
19.58734331065588
19.587965980702098
19.588553041032426
19.58908906540657
19.58955768314933
19.589942749529378
19.59022969610128
19.590406892915478
19.59046682503616
19.66615897203957
19.666197389922363
19.66631124875961
19.666496509511195
19.666746899108254
19.667054518626898
19.667410567693057
19.66780607077696
19.668232539643707
19.668682483467027
19.669149758178314
19.669629723550116
19.67011922831599
19.67061645435994
19.671120637374162
19.671631696633483
19.67214980957322
19.672674950534848
19.673206423426112
19.673742416737202
19.674279612839516
19.6748128935997
19.675335173270284
19.67583742018073
19.676308884027645
19.676737563233907
19.677110899681836
19.677416656665134
19.677643901297756
19.677783972581192
19.67783130324419
19.74679163626806
19.746821757669103
19.746911077583956
19.747056566623613
19.74725350322652
19.747495911214003
19.74777708761596
19.748090139806987
19.74842848593146
19.748786250254277
19.749158544517304
19.7495416057327
19.7499328012616
19.75033052149052
19.7507339711683
19.751142884507285
19.751557193296183
19.751976665396917
19.752400539881787
19.752827183923618
19.75325379851639
19.753676206598254
19.754088746209398
19.754484313091965
19.75485455951482
19.755190269120128
19.755481891294863
19.755720197303685
19.75589699871336
19.756005843447607
19.75604259933761
19.81061482141431
19.810637977979187
19.810706677430204
19.81081868217394
19.810970494831857
19.81115767005109
19.81137519440075
19.811617877348326
19.811880721578603
19.812159221227866
19.812449580349604
19.81274882632158
19.813054823620703
19.813366201081326
19.813682199342878
19.81400245723672
19.814326760175135
19.81465476507443
19.81498572367238
19.815318225103674
19.815649979545928
19.815977668764436
19.816296879533436
19.81660215141623
19.81688714011424
19.817144907471103
19.81736832208183
19.817550540376885
19.817685524568606
19.8177685378746
19.817796555641536
19.86022878125873
19.860246260196067
19.860298137433777
19.86038278546191
19.860497654452317
19.86063949197522
19.860804612843587
19.86098917925413
19.861189469662396
19.861402098542523
19.861624181059877
19.86185342225101
19.862088133161848
19.862327182324517
19.86256988642814
19.86281585385766
19.863064798727507
19.86331633695842
19.86356978179698
19.863823955330037
19.86407703287471
19.864326439526494
19.864568809823293
19.864800032521615
19.86501537893562
19.865209720878916
19.865377824400614
19.865514696349017
19.865615952509337
19.865678165881917
19.865699153552498
19.898146366625607
19.898159337440216
19.898197849356286
19.898260736269453
19.898346167522867
19.89845180086924
19.89857497157722
19.89871289010042
19.898862833876784
19.899022305924348
19.899189155889776
19.8993616477539
19.89953847509938
19.89971872925585
19.899901822393296
19.900087375336188
19.900275083220528
19.900464567808683
19.90065522981879
19.90084611392277
19.90103579905954
19.901222328100225
19.901403184194045
19.901575328974843
19.90173529998564
19.90187937051283
19.90200376076066
19.902104883435804
19.902179601776922
19.90222547155738
19.902240939141528
19.92666442699263
19.926673902001976
19.926702044411815
19.926748030669803
19.926810565563663
19.926887987402434
19.92697839878165
19.927079804016053
19.927190243724333
19.927307907154546
19.927431219247186
19.927558890589324
19.927689930426137
19.92782362608336
19.927959489806444
19.92809717987656
19.928236405553466
19.928376822354387
19.928517927617172
19.928658965729706
19.928798852243442
19.928936126871236
19.929068940159382
19.929195084198092
19.929312064546963
19.92941721500341
19.9295078467522
19.929581419740174
19.92963572110114
19.92966903129071
19.929680259324964
19.947791307363143
19.947798128993693
19.947818397147575
19.947851538069035
19.94789664793416
19.947952564297832
19.948017955350043
19.948091414135515
19.948171551556836
19.948257074583175
19.94834684767598
19.948439928771915
19.9485355796811
19.948633253011955
19.94873255602426
19.94883319615108
19.948934915002297
19.949037415523343
19.949140289530185
19.949242952397313
19.949344591460914
19.949444135128076
19.949540245754605
19.949631343302844
19.94971565721618
19.949791307309347
19.949856407426907
19.94990918333147
19.94994809449645
19.94997194681371
19.949979983923576
19.963219644513938
19.963224491177215
19.963238895931674
19.963262464091944
19.96329457298228
19.963334419898295
19.963381082281433
19.96343358146506
19.963490946039865
19.963552265469353
19.96361673269224
19.963683669513692
19.963752534552633
19.963822915073713
19.963894502787028
19.963967056844645
19.964040358809765
19.964114162872647
19.96418814643976
19.96426186588208
19.96433472201804
19.964405940137734
19.96447456648531
19.964539485902637
19.96459945850329
19.96465317575076
19.964699331453783
19.964736701790503
19.9647642274353
19.96478108915498
19.96478676882648
19.974331356846633
19.974334759970873
19.974344877445173
19.974361440876713
19.974384026232745
19.974412085682257
19.974444987699794
19.9744820596718
19.974522630516432
19.974566066929516
19.974611802487715
19.97465935525173
19.974708333642607
19.97475843142931
19.974809411759587
19.97486108240569
19.974913265521298
19.97496576415513
19.975018329091
19.97507062932841
19.97512222933762
19.97517257634468
19.975220998821197
19.975266719311232
19.975308879918448
19.975346580620602
19.97537892725836
19.97540508520321
19.975424334115747
19.9754361181143
19.97544008612939
19.98222362362783
19.982225989920522
19.982233026958898
19.982244554017164
19.982260285176206
19.982279850256177
19.982302821274267
19.982328740618676
19.982357149395295
19.98238761163681
19.98241973392927
19.98245317743658
19.98248766213828
19.98252296381167
19.982558903632054
19.98259533183615
19.982632107693775
19.982669077299647
19.98270605163094
19.982742787127506
19.982778970908342
19.98281421280197
19.982848044894094
19.982879930667643
19.982909282464814
19.982935487342747
19.982957939146633
19.98297607412538
19.982989407083565
19.982997564365046
19.98300031030271
19.987744979242585
19.987746614169836
19.98775147762273
19.98775944873903
19.98777033604946
19.987783891137425
19.987799825962092
19.987817831339413
19.987837595638066
19.987858820802845
19.987881235463597
19.987904603059636
19.987928724842124
19.987953438094255
19.9879786094327
19.988004124143128
19.988029873065667
19.988055738032138
19.988081577509924
19.988107213970153
19.988132424388574
19.988156935321733
19.98818042297001
19.98820251959815
19.988222825374887
19.9882409256633
19.98825641227896
19.98826890694322
19.98827808497824
19.9882836968434
19.9882855853574
19.991534914618423
19.991536044581498
19.991539406870857
19.991544920720127
19.99155245800528
19.991561852141047
19.991572909400016
19.991585421005887
19.991599175432547
19.991613968975877
19.99162961448031
19.991645946804542
19.991662824931144
19.991680130939944
19.9916977657194
19.99171564204374
19.991733676034695
19.99175177766688
19.991769841429708
19.99178773816015
19.99180530897911
19.991822362284772
19.991838674036405
19.991853992237353
19.991868044933067
19.991880551741136
19.991891237907797
19.991899849721396
19.991906170017057
19.991910032218843
19.99191133153988
19.994061389935247
19.99406218194941
19.994064539326985
19.994068407411167
19.994073699375043
19.994080302078785
19.994088083546103
19.994096900960926
19.99410660884367
19.99411706609645
19.994128141871144
19.994139719282067
19.994151696898697
19.994163988165724
19.994176518641126
19.99418922147003
19.994202031787495
19.99421488048434
19.99422768809123
19.99424035946376
19.99425277989121
19.99426481326489
19.99427630243537
19.994287072370337
19.994296935613004
19.994305700052877
19.994313178321985
19.994319198036873
19.994323612058814
19.99432630775448
19.994327214364006
19.995653480834697
19.995654059362842
19.995655781795747
19.99565860959525
19.995662481453635
19.995667317306765
19.995673023473095
19.99567949815495
19.995686637092877
19.995694338448054
19.995702506905374
19.995711056294343
19.995719910684198
19.995729004056813
19.9957382784643
19.995747680959816
19.99575715979248
19.995766660161888
19.995776120064534
19.995785466708366
19.995794613927256
19.995803461036473
19.99581189319939
19.99581978373645
19.99582699799822
19.995833398813556
19.995838853025422
19.995843238574437
19.99584645156714
19.995848412634956
19.995849071981603
19.99652748068414
19.996527941855696
19.996529315197915
19.996531570885132
19.996534661413055
19.996538524627763
19.9965430876153
19.996548270867372
19.996553992582648
19.996560172385955
19.996566734478034
19.996573609663134
19.9965807362226
19.996588059715886
19.996595531625314
19.99660310706503
19.996610741934298
19.996618389736515
19.996625998474407
19.99663350798637
19.996640848052145
19.996647937604344
19.996654685086316
19.99666099029057
19.996666747368568
19.99667184902335
19.99667619150639
19.996679680007585
19.99668223401635
19.9966837921317
19.996684315872905
19.99680564541517
19.996806069213797
19.996807331377298
19.996809404829726
19.996812246424863
19.9968157996668
19.996819998207403
19.99682476959303
19.996830039140168
19.996835733288922
19.996841782451877
19.996848122853876
19.99685469733484
19.996861455189585
19.996868350964736
19.996875342411602
19.996882387940126
19.996889443771945
19.9968964611646
19.996903384036393
19.996910147287828
19.99691667612275
19.99692288640133
19.996928686327838
19.996933979187038
19.99693866714067
19.99694265573987
19.99694585878282
19.996948203140242
19.99694963307987
19.996950113689707
