# vtk DataFile Version 2.0
Unstructured Grid Example
ASCII
DATASET UNSTRUCTURED_GRID

POINTS 961 float
0.400000004 0.01999999956 0
0.3866666556 0.01999999956 0
0.3733333348 0.01999999956 0
0.3600000144 0.01999999956 0
0.346666664 0.01999999956 0
0.3333333432 0.01999999956 0
0.3199999928 0.01999999956 0
0.3066666724 0.01999999956 0
0.293333322 0.01999999956 0
0.2800000012 0.01999999956 0
0.2666666804 0.01999999956 0
0.25333333 0.01999999956 0
0.2399999948 0.01999999956 0
0.226666674 0.01999999956 0
0.2133333384 0.01999999956 0
0.2000000028 0.01999999956 0
0.1866666676 0.01999999956 0
0.173333332 0.01999999956 0
0.1599999964 0.01999999956 0
0.1466666608 0.01999999956 0
0.1333333404 0.01999999956 0
0.1199999972 0.01999999956 0
0.1066666692 0.01999999956 0
0.0933333336 0.01999999956 0
0.0799999984 0.01999999956 0
0.06666667 0.01999999956 0
0.0533333348 0.01999999956 0
0.03999999912 0.01999999956 0
0.02666666732 0.01999999956 0
0.01333333364 0.01999999956 0
0.0 0.01999999956 0
0.400000004 0.00666666684 0
0.3866666556 0.00666666684 0
0.3733333348 0.00666666684 0
0.3600000144 0.00666666684 0
0.346666664 0.00666666684 0
0.3333333432 0.00666666684 0
0.3199999928 0.00666666684 0
0.3066666724 0.00666666684 0
0.293333322 0.00666666684 0
0.2800000012 0.00666666684 0
0.2666666804 0.00666666684 0
0.25333333 0.00666666684 0
0.2399999948 0.00666666684 0
0.226666674 0.00666666684 0
0.2133333384 0.00666666684 0
0.2000000028 0.00666666684 0
0.1866666676 0.00666666684 0
0.173333332 0.00666666684 0
0.1599999964 0.00666666684 0
0.1466666608 0.00666666684 0
0.1333333404 0.00666666684 0
0.1199999972 0.00666666684 0
0.1066666692 0.00666666684 0
0.0933333336 0.00666666684 0
0.0799999984 0.00666666684 0
0.06666667 0.00666666684 0
0.0533333348 0.00666666684 0
0.03999999912 0.00666666684 0
0.02666666732 0.00666666684 0
0.01333333364 0.00666666684 0
0.0 0.00666666684 0
0.400000004 -0.00666666684 0
0.3866666556 -0.00666666684 0
0.3733333348 -0.00666666684 0
0.3600000144 -0.00666666684 0
0.346666664 -0.00666666684 0
0.3333333432 -0.00666666684 0
0.3199999928 -0.00666666684 0
0.3066666724 -0.00666666684 0
0.293333322 -0.00666666684 0
0.2800000012 -0.00666666684 0
0.2666666804 -0.00666666684 0
0.25333333 -0.00666666684 0
0.2399999948 -0.00666666684 0
0.226666674 -0.00666666684 0
0.2133333384 -0.00666666684 0
0.2000000028 -0.00666666684 0
0.1866666676 -0.00666666684 0
0.173333332 -0.00666666684 0
0.1599999964 -0.00666666684 0
0.1466666608 -0.00666666684 0
0.1333333404 -0.00666666684 0
0.1199999972 -0.00666666684 0
0.1066666692 -0.00666666684 0
0.0933333336 -0.00666666684 0
0.0799999984 -0.00666666684 0
0.06666667 -0.00666666684 0
0.0533333348 -0.00666666684 0
0.03999999912 -0.00666666684 0
0.02666666732 -0.00666666684 0
0.01333333364 -0.00666666684 0
0.0 -0.00666666684 0
0.400000004 -0.01999999956 0
0.3866666556 -0.01999999956 0
0.3733333348 -0.01999999956 0
0.3600000144 -0.01999999956 0
0.346666664 -0.01999999956 0
0.3333333432 -0.01999999956 0
0.3199999928 -0.01999999956 0
0.3066666724 -0.01999999956 0
0.293333322 -0.01999999956 0
0.2800000012 -0.01999999956 0
0.2666666804 -0.01999999956 0
0.25333333 -0.01999999956 0
0.2399999948 -0.01999999956 0
0.226666674 -0.01999999956 0
0.2133333384 -0.01999999956 0
0.2000000028 -0.01999999956 0
0.1866666676 -0.01999999956 0
0.173333332 -0.01999999956 0
0.1599999964 -0.01999999956 0
0.1466666608 -0.01999999956 0
0.1333333404 -0.01999999956 0
0.1199999972 -0.01999999956 0
0.1066666692 -0.01999999956 0
0.0933333336 -0.01999999956 0
0.0799999984 -0.01999999956 0
0.06666667 -0.01999999956 0
0.0533333348 -0.01999999956 0
0.03999999912 -0.01999999956 0
0.02666666732 -0.01999999956 0
0.01333333364 -0.01999999956 0
0.0 -0.01999999956 0
0.400000004 -0.03333333508 0
0.3866666556 -0.03333333508 0
0.3733333348 -0.03333333508 0
0.3600000144 -0.03333333508 0
0.346666664 -0.03333333508 0
0.3333333432 -0.03333333508 0
0.3199999928 -0.03333333508 0
0.3066666724 -0.03333333508 0
0.293333322 -0.03333333508 0
0.2800000012 -0.03333333508 0
0.2666666804 -0.03333333508 0
0.25333333 -0.03333333508 0
0.2399999948 -0.03333333508 0
0.226666674 -0.03333333508 0
0.2133333384 -0.03333333508 0
0.2000000028 -0.03333333508 0
0.1866666676 -0.03333333508 0
0.173333332 -0.03333333508 0
0.1599999964 -0.03333333508 0
0.1466666608 -0.03333333508 0
0.1333333404 -0.03333333508 0
0.1199999972 -0.03333333508 0
0.1066666692 -0.03333333508 0
0.0933333336 -0.03333333508 0
0.0799999984 -0.03333333508 0
0.06666667 -0.03333333508 0
0.0533333348 -0.03333333508 0
0.03999999912 -0.03333333508 0
0.02666666732 -0.03333333508 0
0.01333333364 -0.03333333508 0
0.0 -0.03333333508 0
0.400000004 -0.0466666668 0
0.3866666556 -0.0466666668 0
0.3733333348 -0.0466666668 0
0.3600000144 -0.0466666668 0
0.346666664 -0.0466666668 0
0.3333333432 -0.0466666668 0
0.3199999928 -0.0466666668 0
0.3066666724 -0.0466666668 0
0.293333322 -0.0466666668 0
0.2800000012 -0.0466666668 0
0.2666666804 -0.0466666668 0
0.25333333 -0.0466666668 0
0.2399999948 -0.0466666668 0
0.226666674 -0.0466666668 0
0.2133333384 -0.0466666668 0
0.2000000028 -0.0466666668 0
0.1866666676 -0.0466666668 0
0.173333332 -0.0466666668 0
0.1599999964 -0.0466666668 0
0.1466666608 -0.0466666668 0
0.1333333404 -0.0466666668 0
0.1199999972 -0.0466666668 0
0.1066666692 -0.0466666668 0
0.0933333336 -0.0466666668 0
0.0799999984 -0.0466666668 0
0.06666667 -0.0466666668 0
0.0533333348 -0.0466666668 0
0.03999999912 -0.0466666668 0
0.02666666732 -0.0466666668 0
0.01333333364 -0.0466666668 0
0.0 -0.0466666668 0
0.400000004 -0.0599999988 0
0.3866666556 -0.0599999988 0
0.3733333348 -0.0599999988 0
0.3600000144 -0.0599999988 0
0.346666664 -0.0599999988 0
0.3333333432 -0.0599999988 0
0.3199999928 -0.0599999988 0
0.3066666724 -0.0599999988 0
0.293333322 -0.0599999988 0
0.2800000012 -0.0599999988 0
0.2666666804 -0.0599999988 0
0.25333333 -0.0599999988 0
0.2399999948 -0.0599999988 0
0.226666674 -0.0599999988 0
0.2133333384 -0.0599999988 0
0.2000000028 -0.0599999988 0
0.1866666676 -0.0599999988 0
0.173333332 -0.0599999988 0
0.1599999964 -0.0599999988 0
0.1466666608 -0.0599999988 0
0.1333333404 -0.0599999988 0
0.1199999972 -0.0599999988 0
0.1066666692 -0.0599999988 0
0.0933333336 -0.0599999988 0
0.0799999984 -0.0599999988 0
0.06666667 -0.0599999988 0
0.0533333348 -0.0599999988 0
0.03999999912 -0.0599999988 0
0.02666666732 -0.0599999988 0
0.01333333364 -0.0599999988 0
0.0 -0.0599999988 0
0.400000004 -0.0733333304 0
0.3866666556 -0.0733333304 0
0.3733333348 -0.0733333304 0
0.3600000144 -0.0733333304 0
0.346666664 -0.0733333304 0
0.3333333432 -0.0733333304 0
0.3199999928 -0.0733333304 0
0.3066666724 -0.0733333304 0
0.293333322 -0.0733333304 0
0.2800000012 -0.0733333304 0
0.2666666804 -0.0733333304 0
0.25333333 -0.0733333304 0
0.2399999948 -0.0733333304 0
0.226666674 -0.0733333304 0
0.2133333384 -0.0733333304 0
0.2000000028 -0.0733333304 0
0.1866666676 -0.0733333304 0
0.173333332 -0.0733333304 0
0.1599999964 -0.0733333304 0
0.1466666608 -0.0733333304 0
0.1333333404 -0.0733333304 0
0.1199999972 -0.0733333304 0
0.1066666692 -0.0733333304 0
0.0933333336 -0.0733333304 0
0.0799999984 -0.0733333304 0
0.06666667 -0.0733333304 0
0.0533333348 -0.0733333304 0
0.03999999912 -0.0733333304 0
0.02666666732 -0.0733333304 0
0.01333333364 -0.0733333304 0
0.0 -0.0733333304 0
0.400000004 -0.086666666 0
0.3866666556 -0.086666666 0
0.3733333348 -0.086666666 0
0.3600000144 -0.086666666 0
0.346666664 -0.086666666 0
0.3333333432 -0.086666666 0
0.3199999928 -0.086666666 0
0.3066666724 -0.086666666 0
0.293333322 -0.086666666 0
0.2800000012 -0.086666666 0
0.2666666804 -0.086666666 0
0.25333333 -0.086666666 0
0.2399999948 -0.086666666 0
0.226666674 -0.086666666 0
0.2133333384 -0.086666666 0
0.2000000028 -0.086666666 0
0.1866666676 -0.086666666 0
0.173333332 -0.086666666 0
0.1599999964 -0.086666666 0
0.1466666608 -0.086666666 0
0.1333333404 -0.086666666 0
0.1199999972 -0.086666666 0
0.1066666692 -0.086666666 0
0.0933333336 -0.086666666 0
0.0799999984 -0.086666666 0
0.06666667 -0.086666666 0
0.0533333348 -0.086666666 0
0.03999999912 -0.086666666 0
0.02666666732 -0.086666666 0
0.01333333364 -0.086666666 0
0.0 -0.086666666 0
0.400000004 -0.1000000016 0
0.3866666556 -0.1000000016 0
0.3733333348 -0.1000000016 0
0.3600000144 -0.1000000016 0
0.346666664 -0.1000000016 0
0.3333333432 -0.1000000016 0
0.3199999928 -0.1000000016 0
0.3066666724 -0.1000000016 0
0.293333322 -0.1000000016 0
0.2800000012 -0.1000000016 0
0.2666666804 -0.1000000016 0
0.25333333 -0.1000000016 0
0.2399999948 -0.1000000016 0
0.226666674 -0.1000000016 0
0.2133333384 -0.1000000016 0
0.2000000028 -0.1000000016 0
0.1866666676 -0.1000000016 0
0.173333332 -0.1000000016 0
0.1599999964 -0.1000000016 0
0.1466666608 -0.1000000016 0
0.1333333404 -0.1000000016 0
0.1199999972 -0.1000000016 0
0.1066666692 -0.1000000016 0
0.0933333336 -0.1000000016 0
0.0799999984 -0.1000000016 0
0.06666667 -0.1000000016 0
0.0533333348 -0.1000000016 0
0.03999999912 -0.1000000016 0
0.02666666732 -0.1000000016 0
0.01333333364 -0.1000000016 0
0.0 -0.1000000016 0
0.400000004 -0.1133333372 0
0.3866666556 -0.1133333372 0
0.3733333348 -0.1133333372 0
0.3600000144 -0.1133333372 0
0.346666664 -0.1133333372 0
0.3333333432 -0.1133333372 0
0.3199999928 -0.1133333372 0
0.3066666724 -0.1133333372 0
0.293333322 -0.1133333372 0
0.2800000012 -0.1133333372 0
0.2666666804 -0.1133333372 0
0.25333333 -0.1133333372 0
0.2399999948 -0.1133333372 0
0.226666674 -0.1133333372 0
0.2133333384 -0.1133333372 0
0.2000000028 -0.1133333372 0
0.1866666676 -0.1133333372 0
0.173333332 -0.1133333372 0
0.1599999964 -0.1133333372 0
0.1466666608 -0.1133333372 0
0.1333333404 -0.1133333372 0
0.1199999972 -0.1133333372 0
0.1066666692 -0.1133333372 0
0.0933333336 -0.1133333372 0
0.0799999984 -0.1133333372 0
0.06666667 -0.1133333372 0
0.0533333348 -0.1133333372 0
0.03999999912 -0.1133333372 0
0.02666666732 -0.1133333372 0
0.01333333364 -0.1133333372 0
0.0 -0.1133333372 0
0.400000004 -0.1266666652 0
0.3866666556 -0.1266666652 0
0.3733333348 -0.1266666652 0
[...]
POINT_DATA 961
SCALARS Temp float 1
LOOKUP_TABLE default
0.9024632149332569
0.9389389088459407
0.9660152432619218
0.9865264465284573
1.0022773117894463
1.014508606082195
1.0241102117604326
1.0317314597666651
1.0378552061081947
1.0428462503004028
1.0469866952386273
1.0505001668100051
1.05356940536843
1.056350044596955
1.058980815780189
1.0615916226483435
1.0643110493881567
1.0672732407500314
1.0706251485606446
1.0745348202879474
1.079201467046804
1.08486878386912
1.0918417784383219
1.1005110082297829
1.1113850482214593
1.125136972880311
1.1426710648440708
1.1652212750963695
1.1945039949790837
1.2329939957767322
1.284724561006974
0.9458633303957863
0.9815691326513769
1.008365419260182
1.0287641444861113
1.04445978231974
1.0566650221648377
1.0662555710408943
1.0738738584674148
1.0799990357747968
1.0849938844270166
1.0891393880091789
1.0926585639789441
1.095733843949702
1.0985207165082136
1.1011578600213892
1.1037751783917897
1.1065012708197337
1.1094702867562511
1.1128291426950128
1.1167457695499945
1.121419119628645
1.1270923748492356
1.134069613201991
1.1427397217244992
1.15360831460475
1.1673431356734913
1.184838577253881
1.207308737954694
1.236427877456941
1.2745399966892401
1.324967732722991
2.9726072836487463
2.9781789379740276
2.9937036743699186
3.0085384707553295
3.02132354820366
3.031987467059461
3.0407904789733218
3.0480499293705234
3.0540637464410425
3.0590912431513333
3.0633530985102735
3.067037232190512
3.070306067903938
3.0733036759055192
3.076162254060554
3.0790079912162165
3.0819665806313896
3.085168635719236
3.088755268602477
3.0928841438885963
3.0977362972121503
3.1035238668741045
3.1104986742633014
3.1189610213641306
3.1292662718126216
3.1418226339440336
3.157061604770639
3.1753265665605643
3.1964826079990107
3.2185517694494274
3.226479621073226
4.966488447580589
4.969596378307688
4.977326720449588
4.987184695285961
4.996859056065961
5.005600092926676
5.013222898680279
5.0197697109049315
5.025367492601722
5.030168303529253
5.034324894997374
5.037981712821528
5.041272968553821
5.044323935341396
5.04725359993206
5.05017789809065
5.053213224165743
5.056480031924063
5.060106480077302
5.064232029570879
5.069010757163462
5.074613891258632
5.081230259547843
5.0890622754504555
5.09831175151426
5.109143633038277
5.1216001611222675
5.135397830502997
5.149449079549173
5.160460636886859
5.164883807286586
6.9500319445915295
6.951747342682506
6.956420766847154
6.962863693971508
6.969910955108133
6.976770644520728
6.9830830379106255
6.9887277750934995
6.993708587535591
6.998089507428687
7.001961611423139
7.005426165782885
7.008586722711055
7.011546085556318
7.014405830356544
7.017267197525968
7.020232699382954
7.023407971354748
7.026903549275578
7.030836193078829
7.035329184238994
7.040510664334171
7.046508183404157
7.053436472884604
7.061372459589521
7.070306973611951
7.080053707001024
7.090085510741218
7.099263084707463
7.105920455381379
7.108364068430429
8.926200962800603
8.927279854216499
8.930287894178893
8.93465990353641
8.939733600263411
8.9449667910084
8.950011417840658
8.95469137839642
8.95894400121255
8.962774638830577
8.966227122749071
8.969365862254842
8.972265651156235
8.975006309271325
8.977670184512984
8.980341333624777
8.983105623482247
8.98605114666733
8.989268484175048
8.9928502835183
8.996889432893049
9.001474790365513
9.006682693378854
9.012561744763559
9.019106653392434
9.02621560107318
9.033625644122617
9.04082984617037
9.047046867094899
9.051327297446921
9.052862942456917
10.896648653727034
10.897357144563594
10.899367656519429
10.902379244594293
10.906011394182903
10.909909396017945
10.913806601780696
10.91753606528462
10.921013923631351
10.9242150338474
10.927152494151713
10.929862912018962
10.932396762386222
10.934812524091022
10.937173318702655
10.939545137306313
10.941995977061593
10.944595287441947
10.94741322970295
10.950519195960098
10.953978891545043
10.957849072790493
10.962168583569014
10.966944153734913
10.972128983989755
10.977593240249243
10.983089466819038
10.988229121008693
10.99249978207865
10.995354190285344
10.996360579500823
12.862329918806477
12.862799095242408
12.864144381226184
12.866198924539383
12.868740123976046
12.871544150529978
12.874425221786646
12.877252225007298
12.87994743210943
12.88247629096389
12.884835551699668
12.887043069991583
12.889130250802188
12.891136939726014
12.893108143908625
12.895092007895833
12.897138540473481
12.89929859475914
12.901622668826246
12.904159050167335
12.90695074057507
12.91003050313484
12.91341318199046
12.91708464777231
12.920987004524502
12.925001467715543
12.928933907461332
12.932513108040883
12.935414798155202
12.937317815068123
12.937981986197812
14.823950444057324
14.824247648943732
14.825105743063842
14.826433289797464
14.828104204982203
14.829985423301903
14.831959488434633
14.833937029262596
14.835859662527337
14.8376965827994
14.839438655582674
14.841092369775911
14.842674835334405
14.844210102508335
14.845726602991906
14.847255420976635
14.848829082206748
14.8504805143554
14.852241867138996
14.85414285134501
14.85620821529545
14.858453961212486
14.86088186733394
14.863472205093816
14.866174974262584
14.868901367147263
14.871518972024209
14.873855947120134
14.87571900032659
14.87692570029797
14.877344046545957
16.782107042619284
16.782267493547703
16.78273330084928
16.783461608843847
16.78439206237631
16.78545895974951
16.786601897766417
16.78777248330716
16.7889368401864
16.79007491231182
16.79117814668671
16.792246709056702
16.793286957381007
16.794309448554344
16.795327455808
16.796355890783538
16.797410489068415
16.798507078605958
16.79966076771561
16.800884874059545
16.802189403623597
16.803578903308168
16.805049523426327
16.80658536541929
16.80815445758752
16.80970540380978
16.81116643526907
16.81244900125522
16.813457439768392
16.81410420942987
16.814327290165732
18.737354232227737
18.73739389234791
18.737510979922384
18.737700137516008
18.737953404700338
18.738261368495124
18.73861431949231
18.73900317037434
18.73942005246957
18.7398585733069
18.740313836330287
18.74078229268749
18.741261511486275
18.741749927221207
18.74224658020325
18.742750862199138
18.74326227302532
18.743780173316416
18.744303526563776
18.744830620684677
18.74535876244945
18.74588395128276
18.746400539142293
18.74690093727881
18.747375426841778
18.74781219992478
18.74819775786708
18.748517772459206
18.748758424128205
18.748908062122435
18.748958861867923
18.84637039330325
18.84640435015975
18.846504901944257
18.84666828216497
18.84688879382408
18.84715952193148
18.847473088965508
18.84782230127979
18.848200623886466
18.84860244162889
18.849023155288787
18.849459138375803
18.84990760939908
18.850366463630742
18.850834078054863
18.851309104702718
18.85179026378011
18.85227612935309
18.852764908063477
18.85325420902722
18.85374080624153
18.854220406659636
18.85468743493275
18.855134888858597
18.855554302867624
18.85593590070384
18.85626899818911
18.856542690843295
18.85674680095289
18.856872964761553
18.85691566285474
18.955190998417564
18.95522062918277
18.955308568602163
18.955452075334232
18.955646942581225
18.95588795396771
18.95616938800628
18.95648547374956
18.956830756190737
18.957200326566216
18.957589942133364
18.957996037578518
18.95841566148085
18.95884636886472
18.959286078891147
18.959732912335184
18.96018502256333
18.960640417450513
18.961096777472047
18.961551273145993
18.962000387552074
18.962439759225308
18.962864055655487
18.963266921491563
18.963641021563454
18.963978229030783
18.964269983455903
18.96450782276616
18.964684056282007
18.96479249312977
18.964829105036685
19.063825925633545
19.063852216141598
19.06393037421347
19.064058334923676
19.064232891297493
19.06444999549766
19.064705104101275
19.064993502810616
19.06531058500758
19.065652043465995
19.066013989390612
19.06639298931812
19.066786040003265
19.067190502717658
19.067604001492008
19.068024298020397
19.06844915728463
19.068876203893993
19.069302777024355
19.06972578988331
19.07014160133952
19.070545914680007
19.070933711060906
19.071299252413652
19.071636161444196
19.071937609713437
19.072196619974267
19.072406474649007
19.072561200732842
19.0726560707838
19.072688044058783
19.1722830888811
19.17230677156762
19.172377265385208
19.17249295817835
19.17265132109385
19.17284911468063
19.173082632399627
19.17334793669291
19.173641072818967
19.173958225270457
19.17429582668913
19.17465060464372
19.175019578507012
19.17540002135037
19.175789387884404
19.176185219024795
19.17658503653065
19.176986228914227
19.177385937695814
19.17778095115123
19.178167613635452
19.17854176405513
19.178898708167253
19.17923325201036
19.179539795966583
19.17981250888066
19.180045579326414
19.18023353209706
19.180371585684256
19.180456007969923
19.18048442106375
19.280568925050307
19.280590565311936
19.280655037964507
19.28076103421226
19.28090648440367
19.281088705372813
19.281304579137714
19.281550730139227
19.2818236931608
19.282120041626403
19.282436484554378
19.28276991561743
19.283117422010335
19.283476263857313
19.283843822803
19.28421752853012
19.284594775724084
19.284972833147318
19.28534875423793
19.285719296729287
19.286080859122993
19.286429445987476
19.286760664372515
19.287069773195984
19.287351780192253
19.287601599122805
19.287814260200957
19.28798516133093
19.28811034092759
19.288186741145708
19.288212428470544
19.383247230684066
19.383267057640595
19.383326165853596
19.383423463505956
19.383557213111423
19.383725140933066
19.38392457266118
19.384152570205917
19.384406066116203
19.38468196945975
19.384977250811527
19.38528898963282
19.385614389152476
19.385950766794434
19.386295517328158
19.386646055977835
19.386999752920985
19.387353860872757
19.387705444919398
19.38805132187549
19.38838801635782
19.388711743953262
19.389018421994585
19.389303725792118
19.389563182232752
19.389792309522647
19.389986794474954
19.390142695805242
19.39025665826994
19.390326114286495
19.39034944987342
19.475038286659604
19.475056282822855
19.475109958442623
19.475198394578534
19.475320121547846
19.47547320179045
19.475655334549895
19.475863962577133
19.476096380149826
19.476349819934292
19.476621526025674
19.47690879731532
19.477209004802287
19.47751958909783
19.47783803450571
19.47816182562982
19.478488396696992
19.47881507504464
19.479139027226385
19.479457214364718
19.479766363041094
19.480062960517294
19.4803432735401
19.480603405448456
19.4808393823201
19.48104727457431
19.48122334529571
19.481364215178544
19.4814670322683
19.481529628751638
19.481550648176256
19.556300261153385
19.556316433407634
19.55636468616745
19.556444242486883
19.556553854845692
19.556691868853477
19.556856305000306
19.55704494256257
19.557255406663103
19.5574852392534
19.557731961069983
19.557993110078655
19.558266259148837
19.558549017972986
19.558839015291436
19.55913386630484
19.559431134197197
19.559728286865038
19.560022656372407
19.560311406929394
19.56059151671591
19.560859780892677
19.56111283423673
19.561347205647362
19.56155939504478
19.561745977621122
19.56190372726455
19.562029750598846
19.562121622469377
19.56217750922616
19.56219626764153
19.62752752060553
19.627541908207778
19.62758484787557
19.627655681879663
19.627753350749504
19.62787644278221
19.628023258434332
19.628191876669067
19.628380225243365
19.62858613853507
19.628807409605614
19.629041823575864
19.6292871745225
19.62954127002509
19.629801919411968
19.630066909702972
19.630333976959587
19.63060077377324
19.630864839409575
19.63112357753401
19.63137424591438
19.63161396416758
19.631839737521208
19.632048506845152
19.63223721584009
19.632402899399196
19.632542785821297
19.63265440576646
19.632735700863414
19.632785121370794
19.63280170384607
19.689319447093865
19.68933212312533
19.689369962742756
19.689432409666285
19.689518565499323
19.689627228490366
19.689756944536143
19.689906059824622
19.69007277761031
19.690255205192013
19.6904513973465
19.69065938488537
19.690877190194097
19.691102833213776
19.691334324093972
19.691569645784988
19.691806733159062
19.692043449065775
19.69227756286279
19.692506735515593
19.692728514833053
19.69294034581213
19.69313959385367
19.693323589468072
19.693489686047666
19.693635334069434
19.693758165354822
19.69385608155801
19.693927341411072
19.69397063843774
19.69398516232446
19.742347429817556
19.742358498499996
19.742391545661523
19.74244610185262
19.74252140725659
19.742616442181223
19.742729967593
19.74286056696228
19.743006692109372
19.743166701268358
19.743338895113585
19.743521540938097
19.74371288659224
19.74391116711341
19.744114600562785
19.74432137573596
19.744529637326877
19.744737468684974
19.744942876806046
19.745143782903437
19.74533802141194
19.745523351478116
19.74569747866358
19.745858094118773
19.746002923647133
19.746129789537818
19.74623667972302
19.746321819525985
19.74638374178532
19.746421348842667
19.746433961217154
19.787322212626393
19.787331804320765
19.78736044577131
19.787407741779177
19.787473051517686
19.787555512590398
19.78765407331095
19.7877675259957
19.78789454396227
19.788033712303054
19.78818355763754
19.788342568430743
19.7885092072898
19.788681917735083
19.788859122299538
19.7890392141268
19.789220546759022
19.78940142204993
19.789580080046644
19.789754693540054
19.789923369538876
19.790084160956717
19.790235086316994
19.790374163588318
19.790499451458913
19.790609100541396
19.790701409919222
19.790774885215775
19.79082829494726
19.79086072002347
19.790871592436545
19.82496196064651
19.824970225922943
19.824994909532272
19.825035679334654
19.825091995885
19.82516313146274
19.825248195824305
19.825346162717857
19.82545589974092
19.825576193192052
19.825705772577933
19.825843327609157
19.82598751893281
19.826136984734422
19.826290340411568
19.8264461730831
19.826603034857005
19.82675943464626
19.826913831689723
19.827064632935176
19.82721019605175
19.827348840733567
19.827478866242092
19.8275985803389
19.827706333776998
19.82780056252235
19.82787983387049
19.827942893391832
19.827988710220797
19.82801651662635
19.82802583881911
19.855964399676314
19.855971503384282
19.85599272021999
19.85602777091806
19.856076201258094
19.856137397169164
19.856210605337516
19.856294954374896
19.856389478956714
19.85649313991247
19.856604844414246
19.856723460175616
19.856847824768003
19.85697675188217
19.857109032068767
19.857243429392852
19.857378677275925
19.857513473215686
19.857646474965684
19.857776299888208
19.85790152885663
19.858020716861756
19.85813240844157
19.85823516228451
19.85832757996234
19.858408340693167
19.85847623894398
19.858530222413872
19.85856942849277
19.858593215969762
19.8586011896361
19.880981028981306
19.880987145012664
19.88100541354571
19.881035598783622
19.88107731671021
19.88113004715766
19.881193150401067
19.881265884157603
19.88134742320704
19.881436875713902
19.881533299929522
19.881635716094536
19.88174311452696
19.88185446147074
19.881968700537108
19.882084750910213
19.882201505056234
19.88231782556238
19.88243254322035
19.88254445771276
19.88265234197379
19.882754951974412
19.882851040228303
19.882939376710794
19.8830187728347
19.883088110156073
19.883146371152172
19.883192670094846
19.883226282554208
19.883246670952893
19.883253504335634
19.900596398372024
19.900601705447045
19.900617558855814
19.9006437574934
19.90067997346052
19.90072576182636
19.90078057415689
19.900843772330866
19.90091464467526
19.900992419376834
19.901076278448123
19.901165367803436
19.901258804329036
19.901355681316666
19.901455070347676
19.901556020594114
19.901657557848665
19.90175868287363
19.90185837081395
19.90195557275913
19.902049220292344
19.902138234465234
19.902221537656228
19.902298071480487
19.90236681696741
19.90242681849258
19.902477209230888
19.902517236527135
19.902546286046128
19.902563902612957
19.902569806292846
19.915310529660527
19.915315208319107
19.91532918542095
19.915352286290943
19.915384225832625
19.915424616604202
19.915472980090897
19.915528758181075
19.915591326718605
19.915660006756152
19.91573407646613
19.91581277983138
19.91589533291805
19.91598092894294
19.91606874042404
19.916157919228322
19.916247596504004
19.91633688206762
19.916424864713626
19.91651061432889
19.916593186479925
19.91667163067982
19.916745000929104
19.91681237129771
19.916872853214187
19.916925615801944
19.916969907352883
19.917005076609897
19.91703059295636
19.91704606378169
19.91705124784873
19.925525340975426
19.925529571747663
19.92554221147305
19.925563104052785
19.92559199450019
19.925628535866537
19.92567229896852
19.92572278226399
19.92577942362592
19.925841610110187
19.925908688438014
19.925979972716625
19.92605475014138
19.926132285779317
19.926211824869956
19.926292593351295
19.926373798370847
19.926454628342704
19.92653425382589
19.92661182996691
19.92668650105939
19.926757408267527
19.926823699210036
19.92688454188996
19.926939139958925
19.926986750549563
19.927026702993796
19.92705841728699
19.92708142155512
19.927095367038124
19.92710003960128
19.931534811543028
19.931538774142307
19.931550613075757
19.93157018326746
19.93159724760737
19.931631483208132
19.931672490231946
19.931719800833477
19.931772889893654
19.931831183917836
19.93189407067739
19.93196090635619
19.932031020910078
19.93210372267187
19.932178300726473
19.932254025702235
19.93233015060332
19.932405911240643
19.9324805274232
19.932553205571782
19.932623143240683
19.93268953650108
19.932751588945536
19.93280852463178
19.93285960214795
19.932904130969103
19.93294148855724
19.932971137174917
19.93299263976106
19.933005673524143
19.933010040371933
19.93351792690479
19.933521800223573
19.933533372550677
19.933552502463748
19.93357895877961
19.933612426591612
19.933652515800503
19.933698769751082
19.933750675623504
19.933807673045433
19.933869163455896
19.933934517061655
19.934003078082636
19.93407416929594
19.934147094433175
19.934221139056753
19.934295571494975
19.934369643393055
19.93444259100411
19.934513637855577
19.934581999255073
19.93464688955787
19.934707530977757
19.934763166202924
19.93481307206431
19.934856575404677
19.93489306964504
19.934922031054672
19.93494303410361
19.934955764598808
19.934960029758628
