# vtk DataFile Version 2.0
Unstructured Grid Example
ASCII
DATASET UNSTRUCTURED_GRID

POINTS 961 float
0.400000004 0.01999999956 0
0.3866666556 0.01999999956 0
0.3733333348 0.01999999956 0
0.3600000144 0.01999999956 0
0.346666664 0.01999999956 0
0.3333333432 0.01999999956 0
0.3199999928 0.01999999956 0
0.3066666724 0.01999999956 0
0.293333322 0.01999999956 0
0.2800000012 0.01999999956 0
0.2666666804 0.01999999956 0
0.25333333 0.01999999956 0
0.2399999948 0.01999999956 0
0.226666674 0.01999999956 0
0.2133333384 0.01999999956 0
0.2000000028 0.01999999956 0
0.1866666676 0.01999999956 0
0.173333332 0.01999999956 0
0.1599999964 0.01999999956 0
0.1466666608 0.01999999956 0
0.1333333404 0.01999999956 0
0.1199999972 0.01999999956 0
0.1066666692 0.01999999956 0
0.0933333336 0.01999999956 0
0.0799999984 0.01999999956 0
0.06666667 0.01999999956 0
0.0533333348 0.01999999956 0
0.03999999912 0.01999999956 0
0.02666666732 0.01999999956 0
0.01333333364 0.01999999956 0
0.0 0.01999999956 0
0.400000004 0.00666666684 0
0.3866666556 0.00666666684 0
0.3733333348 0.00666666684 0
0.3600000144 0.00666666684 0
0.346666664 0.00666666684 0
0.3333333432 0.00666666684 0
0.3199999928 0.00666666684 0
0.3066666724 0.00666666684 0
0.293333322 0.00666666684 0
0.2800000012 0.00666666684 0
0.2666666804 0.00666666684 0
0.25333333 0.00666666684 0
0.2399999948 0.00666666684 0
0.226666674 0.00666666684 0
0.2133333384 0.00666666684 0
0.2000000028 0.00666666684 0
0.1866666676 0.00666666684 0
0.173333332 0.00666666684 0
0.1599999964 0.00666666684 0
0.1466666608 0.00666666684 0
0.1333333404 0.00666666684 0
0.1199999972 0.00666666684 0
0.1066666692 0.00666666684 0
0.0933333336 0.00666666684 0
0.0799999984 0.00666666684 0
0.06666667 0.00666666684 0
0.0533333348 0.00666666684 0
0.03999999912 0.00666666684 0
0.02666666732 0.00666666684 0
0.01333333364 0.00666666684 0
0.0 0.00666666684 0
0.400000004 -0.00666666684 0
0.3866666556 -0.00666666684 0
0.3733333348 -0.00666666684 0
0.3600000144 -0.00666666684 0
0.346666664 -0.00666666684 0
0.3333333432 -0.00666666684 0
0.3199999928 -0.00666666684 0
0.3066666724 -0.00666666684 0
0.293333322 -0.00666666684 0
0.2800000012 -0.00666666684 0
0.2666666804 -0.00666666684 0
0.25333333 -0.00666666684 0
0.2399999948 -0.00666666684 0
0.226666674 -0.00666666684 0
0.2133333384 -0.00666666684 0
0.2000000028 -0.00666666684 0
0.1866666676 -0.00666666684 0
0.173333332 -0.00666666684 0
0.1599999964 -0.00666666684 0
0.1466666608 -0.00666666684 0
0.1333333404 -0.00666666684 0
0.1199999972 -0.00666666684 0
0.1066666692 -0.00666666684 0
0.0933333336 -0.00666666684 0
0.0799999984 -0.00666666684 0
0.06666667 -0.00666666684 0
0.0533333348 -0.00666666684 0
0.03999999912 -0.00666666684 0
0.02666666732 -0.00666666684 0
0.01333333364 -0.00666666684 0
0.0 -0.00666666684 0
0.400000004 -0.01999999956 0
0.3866666556 -0.01999999956 0
0.3733333348 -0.01999999956 0
0.3600000144 -0.01999999956 0
0.346666664 -0.01999999956 0
0.3333333432 -0.01999999956 0
0.3199999928 -0.01999999956 0
0.3066666724 -0.01999999956 0
0.293333322 -0.01999999956 0
0.2800000012 -0.01999999956 0
0.2666666804 -0.01999999956 0
0.25333333 -0.01999999956 0
0.2399999948 -0.01999999956 0
0.226666674 -0.01999999956 0
0.2133333384 -0.01999999956 0
0.2000000028 -0.01999999956 0
0.1866666676 -0.01999999956 0
0.173333332 -0.01999999956 0
0.1599999964 -0.01999999956 0
0.1466666608 -0.01999999956 0
0.1333333404 -0.01999999956 0
0.1199999972 -0.01999999956 0
0.1066666692 -0.01999999956 0
0.0933333336 -0.01999999956 0
0.0799999984 -0.01999999956 0
0.06666667 -0.01999999956 0
0.0533333348 -0.01999999956 0
0.03999999912 -0.01999999956 0
0.02666666732 -0.01999999956 0
0.01333333364 -0.01999999956 0
0.0 -0.01999999956 0
0.400000004 -0.03333333508 0
0.3866666556 -0.03333333508 0
0.3733333348 -0.03333333508 0
0.3600000144 -0.03333333508 0
0.346666664 -0.03333333508 0
0.3333333432 -0.03333333508 0
0.3199999928 -0.03333333508 0
0.3066666724 -0.03333333508 0
0.293333322 -0.03333333508 0
0.2800000012 -0.03333333508 0
0.2666666804 -0.03333333508 0
0.25333333 -0.03333333508 0
0.2399999948 -0.03333333508 0
0.226666674 -0.03333333508 0
0.2133333384 -0.03333333508 0
0.2000000028 -0.03333333508 0
0.1866666676 -0.03333333508 0
0.173333332 -0.03333333508 0
0.1599999964 -0.03333333508 0
0.1466666608 -0.03333333508 0
0.1333333404 -0.03333333508 0
0.1199999972 -0.03333333508 0
0.1066666692 -0.03333333508 0
0.0933333336 -0.03333333508 0
0.0799999984 -0.03333333508 0
0.06666667 -0.03333333508 0
0.0533333348 -0.03333333508 0
0.03999999912 -0.03333333508 0
0.02666666732 -0.03333333508 0
0.01333333364 -0.03333333508 0
0.0 -0.03333333508 0
0.400000004 -0.0466666668 0
0.3866666556 -0.0466666668 0
0.3733333348 -0.0466666668 0
0.3600000144 -0.0466666668 0
0.346666664 -0.0466666668 0
0.3333333432 -0.0466666668 0
0.3199999928 -0.0466666668 0
0.3066666724 -0.0466666668 0
0.293333322 -0.0466666668 0
0.2800000012 -0.0466666668 0
0.2666666804 -0.0466666668 0
0.25333333 -0.0466666668 0
0.2399999948 -0.0466666668 0
0.226666674 -0.0466666668 0
0.2133333384 -0.0466666668 0
0.2000000028 -0.0466666668 0
0.1866666676 -0.0466666668 0
0.173333332 -0.0466666668 0
0.1599999964 -0.0466666668 0
0.1466666608 -0.0466666668 0
0.1333333404 -0.0466666668 0
0.1199999972 -0.0466666668 0
0.1066666692 -0.0466666668 0
0.0933333336 -0.0466666668 0
0.0799999984 -0.0466666668 0
0.06666667 -0.0466666668 0
0.0533333348 -0.0466666668 0
0.03999999912 -0.0466666668 0
0.02666666732 -0.0466666668 0
0.01333333364 -0.0466666668 0
0.0 -0.0466666668 0
0.400000004 -0.0599999988 0
0.3866666556 -0.0599999988 0
0.3733333348 -0.0599999988 0
0.3600000144 -0.0599999988 0
0.346666664 -0.0599999988 0
0.3333333432 -0.0599999988 0
0.3199999928 -0.0599999988 0
0.3066666724 -0.0599999988 0
0.293333322 -0.0599999988 0
0.2800000012 -0.0599999988 0
0.2666666804 -0.0599999988 0
0.25333333 -0.0599999988 0
0.2399999948 -0.0599999988 0
0.226666674 -0.0599999988 0
0.2133333384 -0.0599999988 0
0.2000000028 -0.0599999988 0
0.1866666676 -0.0599999988 0
0.173333332 -0.0599999988 0
0.1599999964 -0.0599999988 0
0.1466666608 -0.0599999988 0
0.1333333404 -0.0599999988 0
0.1199999972 -0.0599999988 0
0.1066666692 -0.0599999988 0
0.0933333336 -0.0599999988 0
0.0799999984 -0.0599999988 0
0.06666667 -0.0599999988 0
0.0533333348 -0.0599999988 0
0.03999999912 -0.0599999988 0
0.02666666732 -0.0599999988 0
0.01333333364 -0.0599999988 0
0.0 -0.0599999988 0
0.400000004 -0.0733333304 0
0.3866666556 -0.0733333304 0
0.3733333348 -0.0733333304 0
0.3600000144 -0.0733333304 0
0.346666664 -0.0733333304 0
0.3333333432 -0.0733333304 0
0.3199999928 -0.0733333304 0
0.3066666724 -0.0733333304 0
0.293333322 -0.0733333304 0
0.2800000012 -0.0733333304 0
0.2666666804 -0.0733333304 0
0.25333333 -0.0733333304 0
0.2399999948 -0.0733333304 0
0.226666674 -0.0733333304 0
0.2133333384 -0.0733333304 0
0.2000000028 -0.0733333304 0
0.1866666676 -0.0733333304 0
0.173333332 -0.0733333304 0
0.1599999964 -0.0733333304 0
0.1466666608 -0.0733333304 0
0.1333333404 -0.0733333304 0
0.1199999972 -0.0733333304 0
0.1066666692 -0.0733333304 0
0.0933333336 -0.0733333304 0
0.0799999984 -0.0733333304 0
0.06666667 -0.0733333304 0
0.0533333348 -0.0733333304 0
0.03999999912 -0.0733333304 0
0.02666666732 -0.0733333304 0
0.01333333364 -0.0733333304 0
0.0 -0.0733333304 0
0.400000004 -0.086666666 0
0.3866666556 -0.086666666 0
0.3733333348 -0.086666666 0
0.3600000144 -0.086666666 0
0.346666664 -0.086666666 0
0.3333333432 -0.086666666 0
0.3199999928 -0.086666666 0
0.3066666724 -0.086666666 0
0.293333322 -0.086666666 0
0.2800000012 -0.086666666 0
0.2666666804 -0.086666666 0
0.25333333 -0.086666666 0
0.2399999948 -0.086666666 0
0.226666674 -0.086666666 0
0.2133333384 -0.086666666 0
0.2000000028 -0.086666666 0
0.1866666676 -0.086666666 0
0.173333332 -0.086666666 0
0.1599999964 -0.086666666 0
0.1466666608 -0.086666666 0
0.1333333404 -0.086666666 0
0.1199999972 -0.086666666 0
0.1066666692 -0.086666666 0
0.0933333336 -0.086666666 0
0.0799999984 -0.086666666 0
0.06666667 -0.086666666 0
0.0533333348 -0.086666666 0
0.03999999912 -0.086666666 0
0.02666666732 -0.086666666 0
0.01333333364 -0.086666666 0
0.0 -0.086666666 0
0.400000004 -0.1000000016 0
0.3866666556 -0.1000000016 0
0.3733333348 -0.1000000016 0
0.3600000144 -0.1000000016 0
0.346666664 -0.1000000016 0
0.3333333432 -0.1000000016 0
0.3199999928 -0.1000000016 0
0.3066666724 -0.1000000016 0
0.293333322 -0.1000000016 0
0.2800000012 -0.1000000016 0
0.2666666804 -0.1000000016 0
0.25333333 -0.1000000016 0
0.2399999948 -0.1000000016 0
0.226666674 -0.1000000016 0
0.2133333384 -0.1000000016 0
0.2000000028 -0.1000000016 0
0.1866666676 -0.1000000016 0
0.173333332 -0.1000000016 0
0.1599999964 -0.1000000016 0
0.1466666608 -0.1000000016 0
0.1333333404 -0.1000000016 0
0.1199999972 -0.1000000016 0
0.1066666692 -0.1000000016 0
0.0933333336 -0.1000000016 0
0.0799999984 -0.1000000016 0
0.06666667 -0.1000000016 0
0.0533333348 -0.1000000016 0
0.03999999912 -0.1000000016 0
0.02666666732 -0.1000000016 0
0.01333333364 -0.1000000016 0
0.0 -0.1000000016 0
0.400000004 -0.1133333372 0
0.3866666556 -0.1133333372 0
0.3733333348 -0.1133333372 0
0.3600000144 -0.1133333372 0
0.346666664 -0.1133333372 0
0.3333333432 -0.1133333372 0
0.3199999928 -0.1133333372 0
0.3066666724 -0.1133333372 0
0.293333322 -0.1133333372 0
0.2800000012 -0.1133333372 0
0.2666666804 -0.1133333372 0
0.25333333 -0.1133333372 0
0.2399999948 -0.1133333372 0
0.226666674 -0.1133333372 0
0.2133333384 -0.1133333372 0
0.2000000028 -0.1133333372 0
0.1866666676 -0.1133333372 0
0.173333332 -0.1133333372 0
0.1599999964 -0.1133333372 0
0.1466666608 -0.1133333372 0
0.1333333404 -0.1133333372 0
0.1199999972 -0.1133333372 0
0.1066666692 -0.1133333372 0
0.0933333336 -0.1133333372 0
0.0799999984 -0.1133333372 0
0.06666667 -0.1133333372 0
0.0533333348 -0.1133333372 0
0.03999999912 -0.1133333372 0
0.02666666732 -0.1133333372 0
0.01333333364 -0.1133333372 0
0.0 -0.1133333372 0
0.400000004 -0.1266666652 0
0.3866666556 -0.1266666652 0
0.3733333348 -0.1266666652 0
[...]
POINT_DATA 961
SCALARS Temp float 1
LOOKUP_TABLE default
0.6629676665322175
0.689446792027441
0.7084491457113355
0.7222657091108948
0.7323892060834546
0.7398432308089735
0.7453565186781204
0.7494535855997736
0.752516195663544
0.7548240720972977
0.7565846058297805
0.75795345548398
0.7590495771922917
0.7599669217632053
0.7607831623892342
0.7615666181851197
0.7623825941880809
0.7632992094553648
0.7643935198019606
0.7657585223298613
0.7675116859108837
0.7698061819949257
0.772845200547142
0.7769022905621737
0.7823486676224465
0.7896919681966881
0.7996314631986228
0.8131388342826824
0.8315812122848152
0.8569426999908275
0.8923705837105462
0.6997498422907309
0.7257144935556379
0.7445127465155721
0.7582536779443501
0.7683424090996472
0.775782159658171
0.7812911437261617
0.7853888697948916
0.7884544854261712
0.7907663524191683
0.7925311627451035
0.7939042462601316
0.795004442820121
0.7959257008067445
0.7967457542600604
0.7975330203874689
0.798352915902333
0.7992736709486575
0.800372435093555
0.8017422572737765
0.8035005773295043
0.8058003822722863
0.808844409517317
0.8129052602853064
0.8183523149928615
0.8256897140607451
0.8356100105653865
0.8490709998567573
0.8674109009644791
0.89251381166192
0.9271086984778056
2.421857090324932
2.4257145178203627
2.4364652698016203
2.446380628341857
2.454579746154945
2.4611030995756966
2.4662105953358697
2.470182813904382
2.4732686331851026
2.4756746143296287
2.477567874882912
2.479082783025132
2.48032821264622
2.481394328924914
2.4823586271049236
2.4832913320563086
2.484260419997111
2.485336543466821
2.4865981256659433
2.4881369407427125
2.490064491632001
2.4925193966238535
2.4956759120877874
2.499753256357589
2.5050242790134556
2.5118190306571213
2.520510452047674
2.53144411231375
2.5446732549969076
2.559013534894967
2.5641618503807253
4.122502605504684
4.124607627160827
4.129774127572679
4.1362297889435595
4.1423505999489665
4.1476570402165445
4.152071195669174
4.155667344789366
4.1585683317170945
4.160903622819081
4.162793315280398
4.164343358796217
4.165645758161269
4.166780918977141
4.167820826139587
4.168832529459925
4.169881752576534
4.171036572045356
4.172371196147005
4.173969853462921
4.175930708400645
4.178369530863424
4.181422316545342
4.185245222057648
4.190007915203425
4.195871930714844
4.202934572301532
4.21109027787917
4.219697055493109
4.226587101235096
4.229394339203045
5.818125440815821
5.819245650446179
5.822273087004072
5.826372073110433
5.830737042046009
5.834838222394888
5.838457569050123
5.84154360129175
5.8441259996419985
5.846269329530433
5.848049697837152
5.849543648771237
5.850823630233237
5.851956950805393
5.853006542794316
5.854032671713375
5.855095133763642
5.856255658379532
5.857580333016965
5.85914183610379
5.861021131566712
5.863308009351185
5.866099248975689
5.869492268677068
5.873570048760204
5.8783697005532805
5.883820594398465
5.8896300719236505
5.895089906675432
5.899124115683755
5.900617126476785
7.510717637250855
7.5113998598509495
7.513287532513351
7.515990090557352
7.5190555056450785
7.522123193170849
7.524972967144985
7.527505480451673
7.5296977801434375
7.531569763669776
7.533162930539153
7.534528036594338
7.535718541801067
7.53678762800273
7.537787318754495
7.538768822394226
7.539783546134559
7.540884382456878
7.5421269609271775
7.543570523764844
7.545277950986011
7.547314213666686
7.5497420276273655
7.552612857808736
7.555950218925874
7.5597210815691405
7.5637910115800215
7.567864678431333
7.571459772134064
7.573972282808764
7.574880554292555
9.201269745231754
9.201704169608394
9.202928896524156
9.204739300058787
9.206879585242351
9.20911612312737
9.211279482396423
9.213270354016974
9.215045857217648
9.21660111207588
9.217954263653201
9.219136111650212
9.220183673104597
9.221136600161369
9.222035483182237
9.22292134429552
9.223835815887488
9.224821594608237
9.225922829276705
9.227185069103122
9.22865429506727
9.230374385643685
9.232382052905002
9.234698055482383
9.237313178762054
9.240168059572293
9.243128524405082
9.245967168416248
9.248371266481724
9.24999879003319
9.250576278696029
10.890218454463033
10.890498176951805
10.891295490375091
10.892498720394986
10.893960366700624
10.89553467174278
10.897104040686568
10.89858935310495
10.89994778504349
10.901164729680849
10.902244957992863
10.903205348120217
10.904069749983256
10.904865748013155
10.905622834400365
10.906371544229184
10.907143169040351
10.907969702441292
10.908883712184187
10.909917807989018
10.911103309033555
10.912467627080819
10.914029743649593
10.91579321596576
10.917736340236392
10.919800214398188
10.92187790302436
10.923811420883755
10.925405487316695
10.926462723990412
10.926833787612395
12.577780680539837
12.577953218510464
12.578448612027497
12.579206505637467
12.580144430188797
12.581176680033616
12.582229422614994
12.583248629525112
12.58420133757084
12.585072674278157
12.585861358321129
12.586575342783595
12.587228382161026
12.587837658859787
12.58842229671332
12.589002524313054
12.58959924514276
12.59023377030318
12.59092748949844
12.591701239069083
12.592574093262101
12.59356127707601
12.594670870488173
12.595899138854358
12.597224631136436
12.59860208114555
12.599958402934005
12.601194298618067
12.6021948351343
12.602849565811729
12.603077718135115
14.2640621441153
14.264152233422426
14.26441232601907
14.264814486179123
14.265319715418752
14.265886179146436
14.266476284072915
14.267060967470048
14.267621059909922
14.268146493337776
14.268634478778845
14.269087478478435
14.269511460104972
14.269914598891372
14.270306397703248
14.270697132870922
14.27109751142863
14.27151841153471
14.271970585738135
14.272464197980195
14.273008054132578
14.27360838623495
14.274267059580835
14.27497920345832
14.275730462239602
14.27649451528737
14.277232003985343
14.277892310224098
14.278419277052812
14.278760630497409
14.278878955748844
15.949113544862742
15.94913236472311
15.949187660301078
15.949276153930715
15.94939302793041
15.949532684353828
15.949689495132443
15.94985838287138
15.950035175338703
15.95021673484511
15.950400931143951
15.950586515178513
15.950772952125591
15.950960251116587
15.951148803908737
15.951339237782808
15.951532281615286
15.95172863431049
15.951928826900021
15.952133068395973
15.952341067378656
15.952551828426232
15.952763426452528
15.952972790253039
15.953175534940572
15.953365922366833
15.953537037117334
15.953681254244636
15.953791016909324
15.953859834021904
15.953883294838649
16.043129446429216
16.043144943052013
16.04319064481227
16.04326431235847
16.043362594622913
16.043481493212326
16.043616846538914
16.04376473571059
16.043921768580326
16.044085223269956
16.044253082230032
16.04442398260175
16.04459711982091
16.044772132471397
16.04494897977259
16.045127819758065
16.045308891604915
16.045492396702514
16.045678375132177
16.045866573327526
16.046056300785757
16.046246280277742
16.04643449847939
16.046618085680034
16.046793252497416
16.046955334089468
16.04709898597383
16.047218559507105
16.047308646460543
16.047364722678477
16.04738376871141
16.13704837456741
16.137061381865543
16.13709985354764
16.137162214828294
16.13724607482216
16.13734851890132
16.13746642678322
16.137596755180525
16.13773675517001
16.137884102045984
16.138036951526203
16.138193930942126
16.13835408764764
16.13851681406389
16.138681757789605
16.138848724904776
16.139017581979942
16.13918815477964
16.139360123912766
16.139532916950156
16.13970559831351
16.139876763550426
16.140044445106906
16.140206052911733
16.140358366919692
16.140497612463786
16.14061963849487
16.140720205462816
16.140795365722866
16.14084188644383
16.140857640857696
16.2308750475498
16.230886143070858
16.23091903482465
16.23097258601589
16.231045049937187
16.23113425884005
16.23123783664625
16.231353396356386
16.231478702869847
16.231611780903894
16.23175097441333
16.231894957510413
16.23204270991943
16.23219346993007
16.23234667021945
16.232501863600127
16.232658644757713
16.232816567839258
16.23297506221296
16.23313334806082
16.233290354758708
16.233444648971165
16.233594378240294
16.23373724801388
16.233870541269965
16.233991199228125
16.234095970702853
16.23418162824003
16.234245234971755
16.23428442756043
16.234297669507434
16.32461301373949
16.32462260920412
16.324651105041546
16.324697660380266
16.324760969987814
16.32483938907828
16.324931077962397
16.32503414075957
16.32514674624455
16.32526721378419
16.3253940677747
16.3255260566102
16.32566214375713
16.32580147949006
16.32594335619678
16.32608715294906
16.326232275156254
16.326378090011833
16.326523861013676
16.326668684207128
16.326811429620914
16.32695069422345
16.32708477048537
16.32721164405868
16.32732902442286
16.327434419587917
16.327525256249377
16.32759904066499
16.3276535472761
16.32768701132301
16.327698296774063
16.418264964280187
16.418273361028472
16.41829833225786
16.41833924134554
16.418395091324484
16.418464609018937
16.418546344977123
16.41863877168508
16.41874037305389
16.418849711305242
16.418965473645848
16.419086493223936
16.419211748818107
16.419340348958453
16.419471501632792
16.419604474003865
16.419738547354957
16.419872968205585
16.42000689912298
16.420139372129903
16.420269248060677
16.42039518725045
16.420515634103836
16.42062882570338
16.420732825037796
16.420825585647002
16.42090504628565
16.42096925045312
16.421016480964177
16.421045393245073
16.421055129045836
16.508831819569263
16.508839242104315
16.50886134079165
16.508897622725748
16.508947309951942
16.509009397193143
16.509082721919114
16.50916603446693
16.50925806442945
16.50935757209537
16.50946338712081
16.509574428593048
16.50968970919901
16.50980832740477
16.50992944764014
16.51005227186222
16.510176007010724
16.51029982919952
16.510422848003248
16.510544073579123
16.510662389555996
16.51077653609312
16.510885104434372
16.5109865506992
16.511079227604416
16.511161438477625
16.511231511083274
16.511287886626647
16.511329216738797
16.51135445715377
16.51136294618908
16.59329269484877
16.593299313890224
16.593319037826888
16.593351476671998
16.59339601060251
16.593451830194873
16.593517986247118
16.593593440278287
16.593677114011925
16.59376792873467
16.593864836786835
16.593966839567894
16.594072993826984
16.594182409035266
16.594294235114308
16.59440764307354
16.594521802385113
16.594635855696808
16.594748893876304
16.59485993377019
16.59496790109128
16.595071621949465
16.595169823458242
16.595261149445626
16.595344188960702
16.595417520573907
16.595479769743932
16.595529675403426
16.595566160593467
16.595588399256172
16.595595871341
16.671617953648983
16.671623902972765
16.671641643645923
16.671670860517263
16.671711049566067
16.671761546357796
16.671821561959177
16.67189021964527
16.6719665920467
16.67204973126028
16.672138694320864
16.67223255886048
16.672330430226175
16.672431442168865
16.672534749957677
16.67263951785139
16.672744904146565
16.67285004411944
16.67295403342117
16.673055913893645
16.673154663707653
16.67324919459668
16.673338355998034
16.673420950924054
16.673495760788207
16.67356158142854
16.67361726772726
16.673661783759
16.673694254802612
16.67371401563279
16.67372064984014
16.74378005551476
16.743785442258417
16.743801514219538
16.743828011419687
16.743864515750282
16.74391047138046
16.743965211010583
16.744027982824406
16.744097978640017
16.744174357035945
16.744256263969664
16.744342846214472
16.744433258626913
16.7445266669316
16.74462224465241
16.74471916565895
16.744816595031324
16.744913678292523
16.745009531141623
16.74510323125093
16.745193813576957
16.74528027136263
16.745361562230848
16.74543662333882
16.74550439266225
16.745563838232705
16.745613992996212
16.745653992900724
16.745683115641725
16.74570081606166
16.745706754640143
16.809753514829296
16.809758426640634
16.809773087969475
16.809797280021247
16.809830649177915
16.80987272184082
16.80992292390598
16.809980600778935
16.81004503896145
16.8101154839478
16.810191157022047
16.810271266760623
16.810355016120653
16.810441606529118
16.81053023749836
16.81062010289397
16.810710386133138
16.810800254134044
16.810888851767565
16.810975298017635
16.811058684924195
16.811138081020545
16.81121253840489
16.81128110680295
16.81134285170632
16.811396878173987
16.81144235826555
16.811478560261918
16.811504877890307
16.811520856639675
16.81152621471969
16.869514886016518
16.869519396097612
16.869532862896946
16.869555098694846
16.869585798781934
16.869624552415658
16.869670857500655
16.869724135646887
16.869783748961655
16.86984901405273
16.869919215862854
16.869993617566518
16.87007146734085
16.87015200324761
16.870234454719505
16.870318041524925
16.870401972144464
16.870485441198326
16.87056762735112
16.870647692603086
16.87072478374142
16.870798037306066
16.870866587053342
16.87092957682854
16.8709861760329
16.87103559913509
16.87107712747769
16.871110131963857
16.871134095404308
16.871148632370826
16.871153504856817
16.923043123389682
16.923047294112255
16.923059750932232
16.923080329781257
16.92310876334764
16.923144689296574
16.923187661536744
16.92323716172367
16.92329261254634
16.923353388844625
16.923418829170892
16.92348824439186
16.92356092410493
16.92363614198348
16.923713158553362
16.923791222088543
16.923869569284317
16.923947425209292
16.924024003697074
16.924098508848047
16.924170138181736
16.924238088522994
16.924301563519375
16.92435978536902
16.924412008083113
16.924457533646077
16.92449572956963
16.924526046754085
16.924548036839585
16.9245613674264
16.924565833972554
16.97031892274193
16.970322808287214
16.970334415760266
16.970353599197704
16.9703801200355
16.970413653392594
16.9704537968953
16.970500079626067
16.970551972846902
16.970608898986242
16.97067024147117
16.97073535230578
16.9708035581467
16.97087416590145
16.970946466383175
16.971019736571506
16.971093241921096
16.971166238118627
16.971237973237365
16.971307690773692
16.971374633929248
16.97143805201748
16.971497207851794
16.971551388443935
16.971599916483537
16.971642163902413
16.971677566222965
16.971705636852896
16.97172598079404
16.97173830652209
16.971742435192652
17.01132562636629
17.011329274678555
17.011340175185467
17.01135819580365
17.01138312009097
17.0114146521555
17.011452423729953
17.011496001284716
17.011544894880394
17.011598565589125
17.011656434021823
17.0117178871104
17.01178228387949
17.01184896116713
17.011917237867348
17.01198641814314
17.01205579488171
17.012124652721763
17.012192271437634
17.01225793002234
17.012320911701355
17.012380510603965
17.012436038936375
17.01248683679451
17.012532282226108
17.012571802801556
17.01260488755635
17.012631098652548
17.012650082429676
17.012661578869363
17.012665428868885
17.046048399787225
17.04605185405572
17.046062176036266
17.04607924423428
17.046102859139655
17.046132747161582
17.04616856645228
17.046209912706395
17.04625632665523
17.046307300347202
17.04636228470033
17.046420695675607
17.04648191979131
17.046545319887592
17.046610239754965
17.046676008000667
17.04674194229383
17.04680735327198
17.046871548767104
17.04693383858789
17.046993539993476
17.047049984473013
17.047102524678483
17.047150543502994
17.04719346303652
17.047230754623794
17.047261949015432
17.047286646096314
17.04730452400359
17.047315346849334
17.047318970608
17.074474922893142
17.074478222694797
17.074488083980086
17.074504393211647
17.074526963638913
17.074555538549266
17.07458979620694
17.07462935472291
17.07467377857594
17.074722584073182
17.07477524618772
17.07483120427591
17.07488986738369
17.07495062001173
17.075012826990786
17.075075837787576
17.07513899128266
17.075201620272395
17.075263056259267
17.07532263469
17.075379700707863
17.075433615952093
17.07548376526235
17.075529565170466
17.075570472013418
17.07560599086496
17.075635684373722
17.07565918109133
17.07567618320135
17.075686472998374
17.075689917790577
17.096595059650106
17.09659824185809
17.096607752327817
17.096623483309344
17.096645257353448
17.096672830094363
17.096705894578246
17.096744085492226
17.09678698500701
17.096834127665346
17.096885006711215
17.09693907947822
17.09699577253613
17.097054487437116
17.097114605743982
17.09717549362241
17.097236506967484
17.09729699629663
17.09735631190637
17.09741380939815
17.097468855591792
17.09752083530221
17.097569157850188
17.09761326510839
17.09765263899722
17.097686809605868
17.097715363097528
17.097737949051947
17.097754287222873
17.097764173152008
17.097767482389102
17.112400786919864
17.112403886447918
17.11241315021257
17.112428474397365
17.11244968788573
17.112476554740418
17.11250877813426
17.112546004162333
17.112587827239025
17.11263379461088
17.112683412346833
17.11273615050488
17.112791448166092
17.112848719157686
17.112907357170794
17.112966740529494
17.11302623753289
17.113085211590644
17.11314302660507
17.113199052668573
17.11325267206469
17.113303286009955
17.11335032101895
17.113393236638252
17.11343153252165
17.11346475600547
17.1134925093923
17.113514456641255
17.113530329485716
17.1135399324798
17.113543146772177
17.12188651084461
17.121889561277264
17.121898678530236
17.121913761071003
17.121934641464275
17.1219610886811
17.121992811805647
17.12202946361246
17.122070645711382
17.122115912847228
17.122164778696355
17.122216720905154
17.12227118605724
17.122327595379254
17.122385349904636
17.12244383533818
17.122502427514494
17.122560497665237
17.122617417922104
17.122672567104658
17.122725336763185
17.12277513789288
17.122821407208775
17.122863614695177
17.12290127043628
17.122933931877107
17.12296121075132
17.122982779399994
17.122998376525985
17.12300781191898
17.123010969977113
17.12504878719673
17.125051821348425
17.125060890012474
17.125075892405338
17.125096662299683
17.125122970278603
17.12515452736996
17.125190988548066
17.125231957796636
17.125276992339796
17.125325608375324
17.125377286071355
17.125431474511515
17.125487597394237
17.125545058210726
17.12560324513966
17.125661536542292
17.12571930627131
17.125775929211915
17.125830787097556
17.12588327456522
17.12593280585906
17.125978821075147
17.126020793649598
17.126058237109085
17.1260907122291
17.12611783384593
17.12613927705467
17.126154782845894
17.126164162726607
17.126167302160283
