# vtk DataFile Version 2.0
Unstructured Grid Example
ASCII
DATASET UNSTRUCTURED_GRID

POINTS 961 float
0.400000004 0.01999999956 0
0.3866666556 0.01999999956 0
0.3733333348 0.01999999956 0
0.3600000144 0.01999999956 0
0.346666664 0.01999999956 0
0.3333333432 0.01999999956 0
0.3199999928 0.01999999956 0
0.3066666724 0.01999999956 0
0.293333322 0.01999999956 0
0.2800000012 0.01999999956 0
0.2666666804 0.01999999956 0
0.25333333 0.01999999956 0
0.2399999948 0.01999999956 0
0.226666674 0.01999999956 0
0.2133333384 0.01999999956 0
0.2000000028 0.01999999956 0
0.1866666676 0.01999999956 0
0.173333332 0.01999999956 0
0.1599999964 0.01999999956 0
0.1466666608 0.01999999956 0
0.1333333404 0.01999999956 0
0.1199999972 0.01999999956 0
0.1066666692 0.01999999956 0
0.0933333336 0.01999999956 0
0.0799999984 0.01999999956 0
0.06666667 0.01999999956 0
0.0533333348 0.01999999956 0
0.03999999912 0.01999999956 0
0.02666666732 0.01999999956 0
0.01333333364 0.01999999956 0
0.0 0.01999999956 0
0.400000004 0.00666666684 0
0.3866666556 0.00666666684 0
0.3733333348 0.00666666684 0
0.3600000144 0.00666666684 0
0.346666664 0.00666666684 0
0.3333333432 0.00666666684 0
0.3199999928 0.00666666684 0
0.3066666724 0.00666666684 0
0.293333322 0.00666666684 0
0.2800000012 0.00666666684 0
0.2666666804 0.00666666684 0
0.25333333 0.00666666684 0
0.2399999948 0.00666666684 0
0.226666674 0.00666666684 0
0.2133333384 0.00666666684 0
0.2000000028 0.00666666684 0
0.1866666676 0.00666666684 0
0.173333332 0.00666666684 0
0.1599999964 0.00666666684 0
0.1466666608 0.00666666684 0
0.1333333404 0.00666666684 0
0.1199999972 0.00666666684 0
0.1066666692 0.00666666684 0
0.0933333336 0.00666666684 0
0.0799999984 0.00666666684 0
0.06666667 0.00666666684 0
0.0533333348 0.00666666684 0
0.03999999912 0.00666666684 0
0.02666666732 0.00666666684 0
0.01333333364 0.00666666684 0
0.0 0.00666666684 0
0.400000004 -0.00666666684 0
0.3866666556 -0.00666666684 0
0.3733333348 -0.00666666684 0
0.3600000144 -0.00666666684 0
0.346666664 -0.00666666684 0
0.3333333432 -0.00666666684 0
0.3199999928 -0.00666666684 0
0.3066666724 -0.00666666684 0
0.293333322 -0.00666666684 0
0.2800000012 -0.00666666684 0
0.2666666804 -0.00666666684 0
0.25333333 -0.00666666684 0
0.2399999948 -0.00666666684 0
0.226666674 -0.00666666684 0
0.2133333384 -0.00666666684 0
0.2000000028 -0.00666666684 0
0.1866666676 -0.00666666684 0
0.173333332 -0.00666666684 0
0.1599999964 -0.00666666684 0
0.1466666608 -0.00666666684 0
0.1333333404 -0.00666666684 0
0.1199999972 -0.00666666684 0
0.1066666692 -0.00666666684 0
0.0933333336 -0.00666666684 0
0.0799999984 -0.00666666684 0
0.06666667 -0.00666666684 0
0.0533333348 -0.00666666684 0
0.03999999912 -0.00666666684 0
0.02666666732 -0.00666666684 0
0.01333333364 -0.00666666684 0
0.0 -0.00666666684 0
0.400000004 -0.01999999956 0
0.3866666556 -0.01999999956 0
0.3733333348 -0.01999999956 0
0.3600000144 -0.01999999956 0
0.346666664 -0.01999999956 0
0.3333333432 -0.01999999956 0
0.3199999928 -0.01999999956 0
0.3066666724 -0.01999999956 0
0.293333322 -0.01999999956 0
0.2800000012 -0.01999999956 0
0.2666666804 -0.01999999956 0
0.25333333 -0.01999999956 0
0.2399999948 -0.01999999956 0
0.226666674 -0.01999999956 0
0.2133333384 -0.01999999956 0
0.2000000028 -0.01999999956 0
0.1866666676 -0.01999999956 0
0.173333332 -0.01999999956 0
0.1599999964 -0.01999999956 0
0.1466666608 -0.01999999956 0
0.1333333404 -0.01999999956 0
0.1199999972 -0.01999999956 0
0.1066666692 -0.01999999956 0
0.0933333336 -0.01999999956 0
0.0799999984 -0.01999999956 0
0.06666667 -0.01999999956 0
0.0533333348 -0.01999999956 0
0.03999999912 -0.01999999956 0
0.02666666732 -0.01999999956 0
0.01333333364 -0.01999999956 0
0.0 -0.01999999956 0
0.400000004 -0.03333333508 0
0.3866666556 -0.03333333508 0
0.3733333348 -0.03333333508 0
0.3600000144 -0.03333333508 0
0.346666664 -0.03333333508 0
0.3333333432 -0.03333333508 0
0.3199999928 -0.03333333508 0
0.3066666724 -0.03333333508 0
0.293333322 -0.03333333508 0
0.2800000012 -0.03333333508 0
0.2666666804 -0.03333333508 0
0.25333333 -0.03333333508 0
0.2399999948 -0.03333333508 0
0.226666674 -0.03333333508 0
0.2133333384 -0.03333333508 0
0.2000000028 -0.03333333508 0
0.1866666676 -0.03333333508 0
0.173333332 -0.03333333508 0
0.1599999964 -0.03333333508 0
0.1466666608 -0.03333333508 0
0.1333333404 -0.03333333508 0
0.1199999972 -0.03333333508 0
0.1066666692 -0.03333333508 0
0.0933333336 -0.03333333508 0
0.0799999984 -0.03333333508 0
0.06666667 -0.03333333508 0
0.0533333348 -0.03333333508 0
0.03999999912 -0.03333333508 0
0.02666666732 -0.03333333508 0
0.01333333364 -0.03333333508 0
0.0 -0.03333333508 0
0.400000004 -0.0466666668 0
0.3866666556 -0.0466666668 0
0.3733333348 -0.0466666668 0
0.3600000144 -0.0466666668 0
0.346666664 -0.0466666668 0
0.3333333432 -0.0466666668 0
0.3199999928 -0.0466666668 0
0.3066666724 -0.0466666668 0
0.293333322 -0.0466666668 0
0.2800000012 -0.0466666668 0
0.2666666804 -0.0466666668 0
0.25333333 -0.0466666668 0
0.2399999948 -0.0466666668 0
0.226666674 -0.0466666668 0
0.2133333384 -0.0466666668 0
0.2000000028 -0.0466666668 0
0.1866666676 -0.0466666668 0
0.173333332 -0.0466666668 0
0.1599999964 -0.0466666668 0
0.1466666608 -0.0466666668 0
0.1333333404 -0.0466666668 0
0.1199999972 -0.0466666668 0
0.1066666692 -0.0466666668 0
0.0933333336 -0.0466666668 0
0.0799999984 -0.0466666668 0
0.06666667 -0.0466666668 0
0.0533333348 -0.0466666668 0
0.03999999912 -0.0466666668 0
0.02666666732 -0.0466666668 0
0.01333333364 -0.0466666668 0
0.0 -0.0466666668 0
0.400000004 -0.0599999988 0
0.3866666556 -0.0599999988 0
0.3733333348 -0.0599999988 0
0.3600000144 -0.0599999988 0
0.346666664 -0.0599999988 0
0.3333333432 -0.0599999988 0
0.3199999928 -0.0599999988 0
0.3066666724 -0.0599999988 0
0.293333322 -0.0599999988 0
0.2800000012 -0.0599999988 0
0.2666666804 -0.0599999988 0
0.25333333 -0.0599999988 0
0.2399999948 -0.0599999988 0
0.226666674 -0.0599999988 0
0.2133333384 -0.0599999988 0
0.2000000028 -0.0599999988 0
0.1866666676 -0.0599999988 0
0.173333332 -0.0599999988 0
0.1599999964 -0.0599999988 0
0.1466666608 -0.0599999988 0
0.1333333404 -0.0599999988 0
0.1199999972 -0.0599999988 0
0.1066666692 -0.0599999988 0
0.0933333336 -0.0599999988 0
0.0799999984 -0.0599999988 0
0.06666667 -0.0599999988 0
0.0533333348 -0.0599999988 0
0.03999999912 -0.0599999988 0
0.02666666732 -0.0599999988 0
0.01333333364 -0.0599999988 0
0.0 -0.0599999988 0
0.400000004 -0.0733333304 0
0.3866666556 -0.0733333304 0
0.3733333348 -0.0733333304 0
0.3600000144 -0.0733333304 0
0.346666664 -0.0733333304 0
0.3333333432 -0.0733333304 0
0.3199999928 -0.0733333304 0
0.3066666724 -0.0733333304 0
0.293333322 -0.0733333304 0
0.2800000012 -0.0733333304 0
0.2666666804 -0.0733333304 0
0.25333333 -0.0733333304 0
0.2399999948 -0.0733333304 0
0.226666674 -0.0733333304 0
0.2133333384 -0.0733333304 0
0.2000000028 -0.0733333304 0
0.1866666676 -0.0733333304 0
0.173333332 -0.0733333304 0
0.1599999964 -0.0733333304 0
0.1466666608 -0.0733333304 0
0.1333333404 -0.0733333304 0
0.1199999972 -0.0733333304 0
0.1066666692 -0.0733333304 0
0.0933333336 -0.0733333304 0
0.0799999984 -0.0733333304 0
0.06666667 -0.0733333304 0
0.0533333348 -0.0733333304 0
0.03999999912 -0.0733333304 0
0.02666666732 -0.0733333304 0
0.01333333364 -0.0733333304 0
0.0 -0.0733333304 0
0.400000004 -0.086666666 0
0.3866666556 -0.086666666 0
0.3733333348 -0.086666666 0
0.3600000144 -0.086666666 0
0.346666664 -0.086666666 0
0.3333333432 -0.086666666 0
0.3199999928 -0.086666666 0
0.3066666724 -0.086666666 0
0.293333322 -0.086666666 0
0.2800000012 -0.086666666 0
0.2666666804 -0.086666666 0
0.25333333 -0.086666666 0
0.2399999948 -0.086666666 0
0.226666674 -0.086666666 0
0.2133333384 -0.086666666 0
0.2000000028 -0.086666666 0
0.1866666676 -0.086666666 0
0.173333332 -0.086666666 0
0.1599999964 -0.086666666 0
0.1466666608 -0.086666666 0
0.1333333404 -0.086666666 0
0.1199999972 -0.086666666 0
0.1066666692 -0.086666666 0
0.0933333336 -0.086666666 0
0.0799999984 -0.086666666 0
0.06666667 -0.086666666 0
0.0533333348 -0.086666666 0
0.03999999912 -0.086666666 0
0.02666666732 -0.086666666 0
0.01333333364 -0.086666666 0
0.0 -0.086666666 0
0.400000004 -0.1000000016 0
0.3866666556 -0.1000000016 0
0.3733333348 -0.1000000016 0
0.3600000144 -0.1000000016 0
0.346666664 -0.1000000016 0
0.3333333432 -0.1000000016 0
0.3199999928 -0.1000000016 0
0.3066666724 -0.1000000016 0
0.293333322 -0.1000000016 0
0.2800000012 -0.1000000016 0
0.2666666804 -0.1000000016 0
0.25333333 -0.1000000016 0
0.2399999948 -0.1000000016 0
0.226666674 -0.1000000016 0
0.2133333384 -0.1000000016 0
0.2000000028 -0.1000000016 0
0.1866666676 -0.1000000016 0
0.173333332 -0.1000000016 0
0.1599999964 -0.1000000016 0
0.1466666608 -0.1000000016 0
0.1333333404 -0.1000000016 0
0.1199999972 -0.1000000016 0
0.1066666692 -0.1000000016 0
0.0933333336 -0.1000000016 0
0.0799999984 -0.1000000016 0
0.06666667 -0.1000000016 0
0.0533333348 -0.1000000016 0
0.03999999912 -0.1000000016 0
0.02666666732 -0.1000000016 0
0.01333333364 -0.1000000016 0
0.0 -0.1000000016 0
0.400000004 -0.1133333372 0
0.3866666556 -0.1133333372 0
0.3733333348 -0.1133333372 0
0.3600000144 -0.1133333372 0
0.346666664 -0.1133333372 0
0.3333333432 -0.1133333372 0
0.3199999928 -0.1133333372 0
0.3066666724 -0.1133333372 0
0.293333322 -0.1133333372 0
0.2800000012 -0.1133333372 0
0.2666666804 -0.1133333372 0
0.25333333 -0.1133333372 0
0.2399999948 -0.1133333372 0
0.226666674 -0.1133333372 0
0.2133333384 -0.1133333372 0
0.2000000028 -0.1133333372 0
0.1866666676 -0.1133333372 0
0.173333332 -0.1133333372 0
0.1599999964 -0.1133333372 0
0.1466666608 -0.1133333372 0
0.1333333404 -0.1133333372 0
0.1199999972 -0.1133333372 0
0.1066666692 -0.1133333372 0
0.0933333336 -0.1133333372 0
0.0799999984 -0.1133333372 0
0.06666667 -0.1133333372 0
0.0533333348 -0.1133333372 0
0.03999999912 -0.1133333372 0
0.02666666732 -0.1133333372 0
0.01333333364 -0.1133333372 0
0.0 -0.1133333372 0
0.400000004 -0.1266666652 0
0.3866666556 -0.1266666652 0
0.3733333348 -0.1266666652 0
[...]
POINT_DATA 961
SCALARS Temp float 1
LOOKUP_TABLE default
0.7193972802118085
0.7481302310735948
0.7687500316975845
0.7837426634294389
0.7947279048293336
0.8028164740438274
0.8087991329768656
0.8132450414807473
0.8165684569267497
0.8190729103368275
0.8209834436462699
0.8224689631094689
0.8236585484172269
0.8246541455087645
0.8255400371763653
0.8263903559376652
0.827275963706903
0.8282707759946183
0.8294584058309741
0.8309397645414426
0.8328423183670112
0.8353322752638904
0.8386301194370317
0.8430326832663082
0.848942779309065
0.8569112533906842
0.8676968979671197
0.8823541041249764
0.9023663730896767
0.9298866950707788
0.9683302549683684
0.7593102054687552
0.7874848919092003
0.8078832207245187
0.8227937850483157
0.8337413044094609
0.8418143882061896
0.8477923814804035
0.8522390104024766
0.855565693048607
0.8580744830676689
0.8599896638742234
0.8614797848965997
0.8626737995716679
0.8636736511212079
0.8645636882772959
0.8654181499107158
0.8663080190275448
0.8673073315905618
0.8684998022729162
0.8699863985595269
0.8718945551037799
0.8743902796428711
0.8776935652336078
0.8821002157350224
0.8880110522618891
0.8959731269453803
0.9067379425228588
0.9213448217156126
0.9412458928989916
0.9684856287436328
1.0060252860883665
2.6279961895182793
2.6321819788298577
2.643847889801683
2.6546073604303415
2.6635045666605794
2.6705834275573848
2.6761259692670865
2.6804366508588635
2.6837855299505806
2.6863967451004345
2.6884516335504913
2.6900959953054953
2.691447965787092
2.692605379044581
2.693652320597895
2.694664986659804
2.6957171333672867
2.6968854210303252
2.6982549421660025
2.6999252768446595
2.7020174134747217
2.7046817641812897
2.7081074130386393
2.7125322336611313
2.7182522964521914
2.7256257422611903
2.7350572533619832
2.7469218108777422
2.7612771875933886
2.7768382228225197
2.7824248005422385
4.473393610992636
4.475677855789771
4.481284263003042
4.4882896591979735
4.4949317996631475
4.5006903448851965
4.505480744093991
4.509383592300675
4.512532183082443
4.51506699512013
4.517118339739642
4.5188011759713875
4.520215330472815
4.5214480430047725
4.522577415570033
4.5236761948290924
4.524815688313525
4.5260697567896395
4.527518914828304
4.529254550486866
4.531383174230149
4.534030401068649
4.537343793978763
4.5414927935967935
4.546661502525652
4.553025198745727
4.560689462582734
4.569539741210685
4.57887939123798
4.586356079325611
4.589402324144766
6.313340711097492
6.3145563407127625
6.31784167617871
6.322289907595231
6.327026897087594
6.331477775386006
6.3354059312476725
6.338755493905398
6.341558660792275
6.3438854824029525
6.345818532045524
6.34744085669239
6.348831057582329
6.350062158589027
6.351202434363997
6.3523172654770255
6.3534715231095635
6.354732176262571
6.356170923101059
6.357866614129757
6.359907091108273
6.362389773729866
6.365419666978286
6.369102469816524
6.373528215297875
6.3787371641745025
6.384652666356129
6.390957144951125
6.396882082685001
6.401259903357176
6.402880072972808
8.149999037243632
8.150739421214844
8.152788043812373
8.155721093687719
8.159048062247159
8.162377666080603
8.16547096882593
8.168220156657542
8.170600310730887
8.172633008390115
8.17436326640954
8.175846144598033
8.17713963605249
8.1783014312765
8.179387963295284
8.180454780124458
8.181557645396957
8.182753934462315
8.184103992964943
8.185672087146212
8.187526431324454
8.189737509696307
8.192373360223074
8.195489813471575
8.199112371944253
8.203205182376902
8.207622356652443
8.212043416298371
8.21594498928726
8.218671646402376
8.219657324246958
9.984443402404402
9.984914918557735
9.986244233936388
9.988209301739241
9.990532548300964
9.992960450275383
9.995309143952905
9.99747085431162
9.999399035572182
10.00108837544752
10.00255854479153
10.0038429447596
10.004981721792937
10.006017880732776
10.006995443740555
10.0079589009833
10.00895340458711
10.010025261546964
10.011222354909501
10.012594087843775
10.014190332815948
10.016058681843433
10.018238951762537
10.020753649458284
10.02359275886367
10.026691848485354
10.029905310550918
10.032986372137636
10.03559567976665
10.037362084582295
10.037988845043731
11.817147615650029
11.817451285327808
11.81831687631857
11.81962320439068
11.821210206985969
11.822919709760717
11.824624095453794
11.826237493405188
11.827713416443338
11.829035994030136
11.830210380802237
11.831254867321494
11.832195307833285
11.833061607754424
11.833885741728032
11.834700815434982
11.83554075509893
11.836440248779368
11.837434607873945
11.838559189951646
11.839847953116942
11.841330616688719
11.843027753637012
11.844943201476188
11.84705338845198
11.849294380403803
11.85155012357734
11.853649171595176
11.855379610781144
11.856527254123112
11.856930041444556
13.648347004975802
13.648534391211278
13.649072436411736
13.649895642537926
13.650914512125931
13.652036032343698
13.653180070812851
13.654287981879765
13.655323975253928
13.656271888533862
13.657130304944125
13.65790782604234
13.658619346810429
13.659283480484975
13.659920945893955
13.66055365991553
13.661204271403559
13.661895871529929
13.662651637134761
13.663494145331665
13.664444062243117
13.665517878542943
13.666724333446052
13.668059347962533
13.669499621028908
13.670996011887013
13.672469194836452
13.673811404119984
13.674897911166928
13.675608859082367
13.675856594529927
15.478156238225928
15.478254183648268
15.478536976437557
15.478974296909897
15.479523816970744
15.480140127091273
15.48078241630245
15.4814191267099
15.482029432495601
15.482602380816143
15.48313491474524
15.483629673129157
15.484093096534783
15.48453401933341
15.48496271527179
15.485390296531722
15.4858283422348
15.486288617193988
15.486782750351114
15.487321732792893
15.48791508320302
15.488569529029785
15.48928706130951
15.490062364124759
15.490879832017274
15.491710879098362
15.492512775021586
15.49323057508737
15.493803328047532
15.4941743000801
15.49430288539962
17.30663027822525
17.306650915139407
17.306711560443922
17.306808650443752
17.30693694574021
17.30709035576299
17.307262752964423
17.307448603241742
17.307643350907853
17.307843559347692
17.308046882003985
17.308251925744653
17.308458070086395
17.308665282893774
17.308873945776234
17.30908469491915
17.309298276260755
17.30951540321413
17.309736607520534
17.309962072469396
17.310191439771987
17.310423589142076
17.310656393830406
17.310886486195916
17.311109076238644
17.31131790901049
17.311505455904435
17.311663422464648
17.311783592450407
17.311858910576266
17.311884583598378
17.408648083592972
17.408665117139627
17.4087153602017
17.408796375687235
17.40890451549711
17.409035424558045
17.409184566365813
17.40934766361685
17.409521006747344
17.40970160994091
17.409887248484875
17.410076405278144
17.410268166626032
17.41046209777035
17.41065811041241
17.410856330982632
17.411056973464888
17.411260210836904
17.41146604153419
17.411674146339703
17.41188373337684
17.41209337605462
17.412300851395116
17.412503009958296
17.412695707535306
17.41287385348626
17.413031623545557
17.413162867528403
17.413261700493443
17.413323201369963
17.413344086548292
17.51056022115203
17.510574558586047
17.510616971399156
17.510685743464567
17.510778268317434
17.51089136651436
17.51102163100516
17.511165734038762
17.51132066335345
17.511483863356784
17.511653296522233
17.511827434209177
17.51200520108539
17.512185894280606
17.512369086320035
17.512554520668306
17.512742005920806
17.512931306391472
17.513122029390907
17.513313508666656
17.51350468540923
17.51369399402451
17.51387926030561
17.514057637426298
17.514225598223256
17.51437901733346
17.514513364930632
17.51462401938332
17.514706680279247
17.514757827515822
17.514775145984544
17.6123718006643
17.612384071109418
17.612420451503837
17.61247970074538
17.612559910970944
17.612658712625095
17.612773505492978
17.612901673116088
17.613040759801255
17.613188588008445
17.61334332324836
17.613503486324134
17.613667927115436
17.61383577403245
17.614006364865606
17.61417916670014
17.61435369153259
17.61452940736816
17.614705647337
17.61488151862492
17.61505581441226
17.615226936361637
17.615392833839373
17.61555097947057
17.615698390820455
17.615831718359658
17.615947407866354
17.616041935241896
17.616112096325857
17.616155314114675
17.61616991376775
17.714086657623607
17.71409731034333
17.714128950578516
17.71418065801125
17.71425100328844
17.714338183579304
17.714440179763173
17.71455490716151
17.71468034701528
17.71481464003158
17.714956145893005
17.715103464250035
17.715255425472627
17.71541106050731
17.715569552889583
17.715730179104483
17.715892243667625
17.716055009623453
17.71621762804197
17.716379069380363
17.71653806046227
17.716693033965594
17.71684209476238
17.71698301790358
17.717113282277058
17.71723015206981
17.717330807500947
17.71741251968595
17.717472855569603
17.717509887135176
17.717522373769214
17.815707692399812
17.815717056990334
17.815744910329983
17.81579055332165
17.815852890433327
17.815930521128298
17.816021848541215
17.816125186275933
17.816238855872264
17.816361259695363
17.81649093204431
17.81662656232323
17.81676699516337
17.81691121374738
17.81705830747543
17.81720742878814
17.817357744870808
17.81750838518327
17.817658388663425
17.817806653743272
17.817951894801507
17.81809261092187
17.818227069625348
17.818353316741117
17.818469212887635
17.81857250404172
17.818660924628627
17.818732327535535
17.818784830406308
17.81881696049249
17.818827778193757
17.913980445983125
17.91398876703267
17.91401354396227
17.91405423318004
17.9141099760722
17.91417966178389
17.91426200350255
17.914355614783215
17.914459081969866
17.91457102034121
17.91469011656006
17.914815150898782
17.914945002246927
17.91507864020961
17.915215104172784
17.915353473009482
17.915492830390537
17.91563222653415
17.915770640062654
17.915906942930775
17.916039871593078
17.91616800921504
17.916289780266524
17.91640346604481
17.91650723954386
17.916599224509476
17.916677575938035
17.916740576982182
17.916786744474987
17.916814930800903
17.916824409213344
18.005626835787698
18.005634297780617
18.005656536171163
18.00569311862658
18.005743357430145
18.00580635328891
18.005881049658612
18.00596628778912
18.006060860820263
18.006163556833535
18.006273193532543
18.006388638256816
18.006508815315403
18.006632703748128
18.00675932460407
18.006887720521178
18.007016931830904
18.0071459697539
18.00727378995946
18.007399269065598
18.00752118668393
18.00763821685277
18.007748929222124
18.007851806687107
18.00794527678984
18.008027760255995
18.008097733652143
18.00815380198047
18.008194775623256
18.008219743051278
18.008228130785152
18.090614761381183
18.090621508677202
18.090641630938453
18.090674776644057
18.09072038308553
18.090777707398132
18.09084586580629
18.090923873713304
18.091010686428106
18.091105232196526
18.09120644037268
18.09131325890705
18.09142466259972
18.091539654486702
18.09165725898842
18.09177650893043
18.091896430002574
18.09201602291153
18.09213424602955
18.092250000664436
18.092362120998956
18.092469371739103
18.09257045315731
18.092664018924978
18.092748703540835
18.092823161906185
18.092886118167357
18.092936420488606
18.09297309780139
18.092995412447014
18.093002903014973
18.168914429230597
18.16892057724983
18.168938922206124
18.16896917208139
18.169010856786347
18.169063350464885
18.169125900265957
18.16919765585803
18.169277700409804
18.169365076056096
18.169458806823165
18.16955791372445
18.169661423196324
18.169768370783355
18.169877798452376
18.169988747143652
18.170100247568225
18.170211309211684
18.17032090988608
18.17042798751566
18.170531435714103
18.170630105546845
18.170722812714065
18.170808354628868
18.170885534020876
18.17095319116651
18.171010242155866
18.17105572059187
18.171088819956072
18.171108932270876
18.17111567919279
18.240498304282703
18.24050394726534
18.24052079236914
18.240548591927606
18.240586945272714
18.240635315005942
18.240693048424653
18.240759399517895
18.240833552838875
18.240914643308546
18.241001775013153
18.24109403421869
18.24119049763092
18.241290237518697
18.241392321962643
18.24149581146648
18.241599754480845
18.24170318154921
18.241805100003415
18.241904490507544
18.242000306598918
18.242091479116002
18.242176924461955
18.24225556051988
18.242326326860116
18.242388211089153
18.242440279074195
18.24248170703332
18.242511813581324
18.242530088543166
18.24253621588106
18.30534108889196
18.30534630537427
18.305361882442504
18.30538760584173
18.30542312746551
18.305467977414796
18.3055215802301
18.305583271516973
18.3056523166291
18.30572792625899
18.30580927203767
18.305895497822643
18.305985727630592
18.306079071641626
18.306174628498077
18.306271484862123
18.306368714410397
18.30646537577536
18.306560511009486
18.30665314554785
18.306742290491815
18.306826948716342
18.306906123577036
18.306978833553575
18.307044129574233
18.307101116725246
18.3071489783834
18.30718700122754
18.30721459983092
18.30723133847051
18.307236948310095
18.363420107187167
18.363424963927308
18.363439470461227
18.363463437920252
18.363496558318733
18.363538413648126
18.363588488412837
18.36364618240577
18.363710825599927
18.36378169061808
18.36385800588165
18.363938965507877
18.364023736873342
18.36411146713946
18.364201286969397
18.36429231219885
18.364383645342933
18.364474376296194
18.36456358351487
18.36465033639753
18.36473369943329
18.364812739326812
18.36488653377971
18.364954184909664
18.36501483419706
18.365067680571983
18.365111999944748
18.36514716499176
18.365172664335905
18.365188119335244
18.36519329718801
18.41471458381226
18.414719138657496
18.414732746135314
18.414755236775843
18.41478633337909
18.41482565801158
18.414872741899153
18.41492703543724
18.414987920311805
18.415054719666387
18.415126709388158
18.41520312690733
18.41528317840453
18.415366045627465
18.41545089057692
18.415536858674887
18.4156230820637
18.415708682281863
18.415792773376612
18.415874465967068
18.41595287263494
18.416027115631135
18.416096335531165
18.416159703553017
18.416216434581695
18.416265802452013
18.416307156011676
18.416339935046118
18.416363685514508
18.41637807271979
18.416382891497367
18.459206618523325
18.459210922532645
18.459223782566347
18.459245044000344
18.45927445328288
18.45931166344289
18.45935624209009
18.459407679439067
18.459465398409506
18.45952876310253
18.45959708868264
18.45966964932445
18.459745685102384
18.45982440895445
18.45990501202012
18.459986667855713
18.460068536993013
18.460149771008748
18.46022951698633
18.4603069227296
18.460381142961943
18.460451347334974
18.46051672886299
18.460576515293674
18.4606299806057
18.46067645813925
18.460715354058017
18.46074616042467
18.460768467559756
18.460781974596497
18.460786497576272
18.496880285402842
18.49688438445777
18.49689663347861
18.49691688914798
18.496944915983956
18.49698039079442
18.497022909325175
18.497071992863557
18.497127096872788
18.49718761823711
18.49725290409631
18.49732225914127
18.497394952234448
18.49747022343368
18.497547289760686
18.497625350137213
18.49770359081412
18.49778119040749
18.497857325286965
18.497931175560737
18.4980019317863
18.498068803108943
18.498131025446085
18.49818787207275
18.498238663927904
18.498282781112778
18.498319674417136
18.498348876303975
18.498370011177002
18.498382804049733
18.498387087140276
18.527722375364483
18.52772631141173
18.527738074294643
18.527757529179592
18.527784454180907
18.52781854407584
18.527859415996723
18.52790661503012
18.527959621801685
18.52801785883737
18.52808069863042
18.528147470450016
18.52821746674438
18.528289950175196
18.528364159663898
18.5284393158144
18.528514626931056
18.52858929471144
18.528662520257377
18.528733510565278
18.52880148554906
18.528865686210672
18.528925382585197
18.528979883699552
18.529028546972093
18.529070788496433
18.52910609314963
18.529134024063165
18.52915423138791
18.529166459617656
18.529170553117897
18.551722030903687
18.551725842943895
18.551737235899
18.55175608109777
18.55178216655299
18.551815200170005
18.551854814779933
18.551900573046524
18.55195197432001
18.55200846038185
18.552069422966717
18.552134210220185
18.5522021329351
18.55227247157332
18.552344482485484
18.552417403652168
18.552490461088528
18.55256287496954
18.552633866046893
18.552702662459687
18.552768506940147
18.55283066496746
18.552888432509604
18.552941145505798
18.55298818860261
18.553029004564053
18.553063103372917
18.553090070636497
18.5531095753013
18.553121376040753
18.55312532604554
18.56887066276867
18.56887438766671
18.568885520615435
18.568903937127626
18.568929431948387
18.56896172193587
18.569000450665346
18.569045192885994
18.56909546089493
18.569150709877555
18.569210345066413
18.569273727962642
18.56934018245487
18.569409001821594
18.56947945505345
18.569550792791688
18.56962225397274
18.569693072222616
18.569762482524148
18.569829728219762
18.569894068317957
18.56995478561498
18.570011194283456
18.5700626490216
18.57010855333716
18.570148368369736
18.570181621321286
18.570207913157393
18.570226925630447
18.57023842705373
18.57024227660896
18.579162288178868
18.579165961350505
18.579176939943515
18.579195101898378
18.579220245871035
18.579252093929643
18.579290295917026
18.57933443365395
18.579384027041705
18.579438539173125
18.579497383283993
18.579559928838133
18.579625507576605
18.579693420504622
18.579762944267134
18.579833337194213
18.57990384607554
18.579973712701175
18.580042180663618
18.580108502462068
18.580171946857803
18.58023180696921
18.580287407765503
18.58033811501909
18.580383343326535
18.580422564592414
18.58045531607588
18.58048120769062
18.580499928635483
18.580511252820976
18.58051504290413
18.582593223640735
18.58259687966203
18.582607807073927
18.58262588461273
18.582650912217222
18.582682613666076
18.582720640862256
18.582764577954645
18.582813947352523
18.582868214762588
18.582926796072762
18.582989063392596
18.58305435107963
18.583121962720327
18.58319117752223
18.58326125639305
18.583331448756173
18.583400999137798
18.58346915401146
18.58353516893381
18.58359831591453
18.58365789150115
18.583713224240928
18.583763683567806
18.58380868773734
18.583847712199933
18.58388029752253
18.583906056558096
18.583924680949146
18.58393594644167
18.58393971683178
