# vtk DataFile Version 2.0
Unstructured Grid Example
ASCII
DATASET UNSTRUCTURED_GRID

POINTS 961 float
0.400000004 0.01999999956 0
0.3866666556 0.01999999956 0
0.3733333348 0.01999999956 0
0.3600000144 0.01999999956 0
0.346666664 0.01999999956 0
0.3333333432 0.01999999956 0
0.3199999928 0.01999999956 0
0.3066666724 0.01999999956 0
0.293333322 0.01999999956 0
0.2800000012 0.01999999956 0
0.2666666804 0.01999999956 0
0.25333333 0.01999999956 0
0.2399999948 0.01999999956 0
0.226666674 0.01999999956 0
0.2133333384 0.01999999956 0
0.2000000028 0.01999999956 0
0.1866666676 0.01999999956 0
0.173333332 0.01999999956 0
0.1599999964 0.01999999956 0
0.1466666608 0.01999999956 0
0.1333333404 0.01999999956 0
0.1199999972 0.01999999956 0
0.1066666692 0.01999999956 0
0.0933333336 0.01999999956 0
0.0799999984 0.01999999956 0
0.06666667 0.01999999956 0
0.0533333348 0.01999999956 0
0.03999999912 0.01999999956 0
0.02666666732 0.01999999956 0
0.01333333364 0.01999999956 0
0.0 0.01999999956 0
0.400000004 0.00666666684 0
0.3866666556 0.00666666684 0
0.3733333348 0.00666666684 0
0.3600000144 0.00666666684 0
0.346666664 0.00666666684 0
0.3333333432 0.00666666684 0
0.3199999928 0.00666666684 0
0.3066666724 0.00666666684 0
0.293333322 0.00666666684 0
0.2800000012 0.00666666684 0
0.2666666804 0.00666666684 0
0.25333333 0.00666666684 0
0.2399999948 0.00666666684 0
0.226666674 0.00666666684 0
0.2133333384 0.00666666684 0
0.2000000028 0.00666666684 0
0.1866666676 0.00666666684 0
0.173333332 0.00666666684 0
0.1599999964 0.00666666684 0
0.1466666608 0.00666666684 0
0.1333333404 0.00666666684 0
0.1199999972 0.00666666684 0
0.1066666692 0.00666666684 0
0.0933333336 0.00666666684 0
0.0799999984 0.00666666684 0
0.06666667 0.00666666684 0
0.0533333348 0.00666666684 0
0.03999999912 0.00666666684 0
0.02666666732 0.00666666684 0
0.01333333364 0.00666666684 0
0.0 0.00666666684 0
0.400000004 -0.00666666684 0
0.3866666556 -0.00666666684 0
0.3733333348 -0.00666666684 0
0.3600000144 -0.00666666684 0
0.346666664 -0.00666666684 0
0.3333333432 -0.00666666684 0
0.3199999928 -0.00666666684 0
0.3066666724 -0.00666666684 0
0.293333322 -0.00666666684 0
0.2800000012 -0.00666666684 0
0.2666666804 -0.00666666684 0
0.25333333 -0.00666666684 0
0.2399999948 -0.00666666684 0
0.226666674 -0.00666666684 0
0.2133333384 -0.00666666684 0
0.2000000028 -0.00666666684 0
0.1866666676 -0.00666666684 0
0.173333332 -0.00666666684 0
0.1599999964 -0.00666666684 0
0.1466666608 -0.00666666684 0
0.1333333404 -0.00666666684 0
0.1199999972 -0.00666666684 0
0.1066666692 -0.00666666684 0
0.0933333336 -0.00666666684 0
0.0799999984 -0.00666666684 0
0.06666667 -0.00666666684 0
0.0533333348 -0.00666666684 0
0.03999999912 -0.00666666684 0
0.02666666732 -0.00666666684 0
0.01333333364 -0.00666666684 0
0.0 -0.00666666684 0
0.400000004 -0.01999999956 0
0.3866666556 -0.01999999956 0
0.3733333348 -0.01999999956 0
0.3600000144 -0.01999999956 0
0.346666664 -0.01999999956 0
0.3333333432 -0.01999999956 0
0.3199999928 -0.01999999956 0
0.3066666724 -0.01999999956 0
0.293333322 -0.01999999956 0
0.2800000012 -0.01999999956 0
0.2666666804 -0.01999999956 0
0.25333333 -0.01999999956 0
0.2399999948 -0.01999999956 0
0.226666674 -0.01999999956 0
0.2133333384 -0.01999999956 0
0.2000000028 -0.01999999956 0
0.1866666676 -0.01999999956 0
0.173333332 -0.01999999956 0
0.1599999964 -0.01999999956 0
0.1466666608 -0.01999999956 0
0.1333333404 -0.01999999956 0
0.1199999972 -0.01999999956 0
0.1066666692 -0.01999999956 0
0.0933333336 -0.01999999956 0
0.0799999984 -0.01999999956 0
0.06666667 -0.01999999956 0
0.0533333348 -0.01999999956 0
0.03999999912 -0.01999999956 0
0.02666666732 -0.01999999956 0
0.01333333364 -0.01999999956 0
0.0 -0.01999999956 0
0.400000004 -0.03333333508 0
0.3866666556 -0.03333333508 0
0.3733333348 -0.03333333508 0
0.3600000144 -0.03333333508 0
0.346666664 -0.03333333508 0
0.3333333432 -0.03333333508 0
0.3199999928 -0.03333333508 0
0.3066666724 -0.03333333508 0
0.293333322 -0.03333333508 0
0.2800000012 -0.03333333508 0
0.2666666804 -0.03333333508 0
0.25333333 -0.03333333508 0
0.2399999948 -0.03333333508 0
0.226666674 -0.03333333508 0
0.2133333384 -0.03333333508 0
0.2000000028 -0.03333333508 0
0.1866666676 -0.03333333508 0
0.173333332 -0.03333333508 0
0.1599999964 -0.03333333508 0
0.1466666608 -0.03333333508 0
0.1333333404 -0.03333333508 0
0.1199999972 -0.03333333508 0
0.1066666692 -0.03333333508 0
0.0933333336 -0.03333333508 0
0.0799999984 -0.03333333508 0
0.06666667 -0.03333333508 0
0.0533333348 -0.03333333508 0
0.03999999912 -0.03333333508 0
0.02666666732 -0.03333333508 0
0.01333333364 -0.03333333508 0
0.0 -0.03333333508 0
0.400000004 -0.0466666668 0
0.3866666556 -0.0466666668 0
0.3733333348 -0.0466666668 0
0.3600000144 -0.0466666668 0
0.346666664 -0.0466666668 0
0.3333333432 -0.0466666668 0
0.3199999928 -0.0466666668 0
0.3066666724 -0.0466666668 0
0.293333322 -0.0466666668 0
0.2800000012 -0.0466666668 0
0.2666666804 -0.0466666668 0
0.25333333 -0.0466666668 0
0.2399999948 -0.0466666668 0
0.226666674 -0.0466666668 0
0.2133333384 -0.0466666668 0
0.2000000028 -0.0466666668 0
0.1866666676 -0.0466666668 0
0.173333332 -0.0466666668 0
0.1599999964 -0.0466666668 0
0.1466666608 -0.0466666668 0
0.1333333404 -0.0466666668 0
0.1199999972 -0.0466666668 0
0.1066666692 -0.0466666668 0
0.0933333336 -0.0466666668 0
0.0799999984 -0.0466666668 0
0.06666667 -0.0466666668 0
0.0533333348 -0.0466666668 0
0.03999999912 -0.0466666668 0
0.02666666732 -0.0466666668 0
0.01333333364 -0.0466666668 0
0.0 -0.0466666668 0
0.400000004 -0.0599999988 0
0.3866666556 -0.0599999988 0
0.3733333348 -0.0599999988 0
0.3600000144 -0.0599999988 0
0.346666664 -0.0599999988 0
0.3333333432 -0.0599999988 0
0.3199999928 -0.0599999988 0
0.3066666724 -0.0599999988 0
0.293333322 -0.0599999988 0
0.2800000012 -0.0599999988 0
0.2666666804 -0.0599999988 0
0.25333333 -0.0599999988 0
0.2399999948 -0.0599999988 0
0.226666674 -0.0599999988 0
0.2133333384 -0.0599999988 0
0.2000000028 -0.0599999988 0
0.1866666676 -0.0599999988 0
0.173333332 -0.0599999988 0
0.1599999964 -0.0599999988 0
0.1466666608 -0.0599999988 0
0.1333333404 -0.0599999988 0
0.1199999972 -0.0599999988 0
0.1066666692 -0.0599999988 0
0.0933333336 -0.0599999988 0
0.0799999984 -0.0599999988 0
0.06666667 -0.0599999988 0
0.0533333348 -0.0599999988 0
0.03999999912 -0.0599999988 0
0.02666666732 -0.0599999988 0
0.01333333364 -0.0599999988 0
0.0 -0.0599999988 0
0.400000004 -0.0733333304 0
0.3866666556 -0.0733333304 0
0.3733333348 -0.0733333304 0
0.3600000144 -0.0733333304 0
0.346666664 -0.0733333304 0
0.3333333432 -0.0733333304 0
0.3199999928 -0.0733333304 0
0.3066666724 -0.0733333304 0
0.293333322 -0.0733333304 0
0.2800000012 -0.0733333304 0
0.2666666804 -0.0733333304 0
0.25333333 -0.0733333304 0
0.2399999948 -0.0733333304 0
0.226666674 -0.0733333304 0
0.2133333384 -0.0733333304 0
0.2000000028 -0.0733333304 0
0.1866666676 -0.0733333304 0
0.173333332 -0.0733333304 0
0.1599999964 -0.0733333304 0
0.1466666608 -0.0733333304 0
0.1333333404 -0.0733333304 0
0.1199999972 -0.0733333304 0
0.1066666692 -0.0733333304 0
0.0933333336 -0.0733333304 0
0.0799999984 -0.0733333304 0
0.06666667 -0.0733333304 0
0.0533333348 -0.0733333304 0
0.03999999912 -0.0733333304 0
0.02666666732 -0.0733333304 0
0.01333333364 -0.0733333304 0
0.0 -0.0733333304 0
0.400000004 -0.086666666 0
0.3866666556 -0.086666666 0
0.3733333348 -0.086666666 0
0.3600000144 -0.086666666 0
0.346666664 -0.086666666 0
0.3333333432 -0.086666666 0
0.3199999928 -0.086666666 0
0.3066666724 -0.086666666 0
0.293333322 -0.086666666 0
0.2800000012 -0.086666666 0
0.2666666804 -0.086666666 0
0.25333333 -0.086666666 0
0.2399999948 -0.086666666 0
0.226666674 -0.086666666 0
0.2133333384 -0.086666666 0
0.2000000028 -0.086666666 0
0.1866666676 -0.086666666 0
0.173333332 -0.086666666 0
0.1599999964 -0.086666666 0
0.1466666608 -0.086666666 0
0.1333333404 -0.086666666 0
0.1199999972 -0.086666666 0
0.1066666692 -0.086666666 0
0.0933333336 -0.086666666 0
0.0799999984 -0.086666666 0
0.06666667 -0.086666666 0
0.0533333348 -0.086666666 0
0.03999999912 -0.086666666 0
0.02666666732 -0.086666666 0
0.01333333364 -0.086666666 0
0.0 -0.086666666 0
0.400000004 -0.1000000016 0
0.3866666556 -0.1000000016 0
0.3733333348 -0.1000000016 0
0.3600000144 -0.1000000016 0
0.346666664 -0.1000000016 0
0.3333333432 -0.1000000016 0
0.3199999928 -0.1000000016 0
0.3066666724 -0.1000000016 0
0.293333322 -0.1000000016 0
0.2800000012 -0.1000000016 0
0.2666666804 -0.1000000016 0
0.25333333 -0.1000000016 0
0.2399999948 -0.1000000016 0
0.226666674 -0.1000000016 0
0.2133333384 -0.1000000016 0
0.2000000028 -0.1000000016 0
0.1866666676 -0.1000000016 0
0.173333332 -0.1000000016 0
0.1599999964 -0.1000000016 0
0.1466666608 -0.1000000016 0
0.1333333404 -0.1000000016 0
0.1199999972 -0.1000000016 0
0.1066666692 -0.1000000016 0
0.0933333336 -0.1000000016 0
0.0799999984 -0.1000000016 0
0.06666667 -0.1000000016 0
0.0533333348 -0.1000000016 0
0.03999999912 -0.1000000016 0
0.02666666732 -0.1000000016 0
0.01333333364 -0.1000000016 0
0.0 -0.1000000016 0
0.400000004 -0.1133333372 0
0.3866666556 -0.1133333372 0
0.3733333348 -0.1133333372 0
0.3600000144 -0.1133333372 0
0.346666664 -0.1133333372 0
0.3333333432 -0.1133333372 0
0.3199999928 -0.1133333372 0
0.3066666724 -0.1133333372 0
0.293333322 -0.1133333372 0
0.2800000012 -0.1133333372 0
0.2666666804 -0.1133333372 0
0.25333333 -0.1133333372 0
0.2399999948 -0.1133333372 0
0.226666674 -0.1133333372 0
0.2133333384 -0.1133333372 0
0.2000000028 -0.1133333372 0
0.1866666676 -0.1133333372 0
0.173333332 -0.1133333372 0
0.1599999964 -0.1133333372 0
0.1466666608 -0.1133333372 0
0.1333333404 -0.1133333372 0
0.1199999972 -0.1133333372 0
0.1066666692 -0.1133333372 0
0.0933333336 -0.1133333372 0
0.0799999984 -0.1133333372 0
0.06666667 -0.1133333372 0
0.0533333348 -0.1133333372 0
0.03999999912 -0.1133333372 0
0.02666666732 -0.1133333372 0
0.01333333364 -0.1133333372 0
0.0 -0.1133333372 0
0.400000004 -0.1266666652 0
0.3866666556 -0.1266666652 0
0.3733333348 -0.1266666652 0
[...]
POINT_DATA 961
SCALARS Temp float 1
LOOKUP_TABLE default
0.7516389410636743
0.7816599512784289
0.8032047801788054
0.8188706338047629
0.8303497414467722
0.8388025116075655
0.8450550903236864
0.849702112103673
0.8531763811347275
0.8557950221476309
0.8577931591518371
0.8593472684742928
0.8605922174226669
0.8616345251551774
0.8625622572740509
0.863452875175254
0.8643804240007902
0.8654221402911195
0.8666653937139446
0.8682156284902187
0.8702060347592264
0.8728102812697048
0.8762587454487296
0.8808615734277132
0.8870396381219505
0.8953684739779909
0.9066408707771779
0.9219584468040357
0.9428711341089278
0.9716283125534917
1.0117981256229391
0.7933357077295065
0.822773384063188
0.8440868202503573
0.8596669319425062
0.8711066354346306
0.8795432390592413
0.8857909601330658
0.8904387556094496
0.8939164627390305
0.8965396622544851
0.8985426852255533
0.9001016347308589
0.9013512457310299
0.9023980341055728
0.9033301339076035
0.9042251172040013
0.9051571552016531
0.9062036098318857
0.9074519564939107
0.9090076976085384
0.911003989821757
0.9136142921790741
0.9170684684067234
0.9216755894322085
0.9278544468193075
0.936176610527832
0.9474272529462526
0.9626922473925613
0.9834887440565241
1.011952743466329
1.0511780035985931
2.7455342341465236
2.749907960227704
2.762097678835033
2.7733408811326323
2.7826387978061056
2.7900372326827965
2.795830788474508
2.800337522063772
2.8038395584021045
2.806571053058638
2.8087214471084376
2.8104430549259964
2.8118592884494125
2.8130723496835377
2.8141700768124576
2.815232065811775
2.8163353638708806
2.8175600531705984
2.8189950266757204
2.8207443147861833
2.8229343160294547
2.82572217112821
2.829305424649858
2.8339325943455806
2.839912997149096
2.847620791870425
2.8574787466113167
2.869878565574566
2.8848804678270334
2.901141412109107
2.906979258515238
4.673394916981092
4.6757819171556605
4.681640711876048
4.688961876912105
4.695904114854328
4.701923692347352
4.706932204316206
4.711013801519757
4.714307702124343
4.716960636397423
4.719108714917961
4.720872009950383
4.722354784315604
4.723648150459638
4.724833673901263
4.725987325055256
4.7271835710161785
4.728499546916408
4.730019340308308
4.731838399878478
4.734067974483256
4.736839273129199
4.740306434592908
4.744646452057739
4.750051630858452
4.756705044322405
4.764716924499296
4.773967470611001
4.783728643704943
4.7915423887189235
4.794725868041181
6.595552781888516
6.5968233343840375
6.600257219232771
6.604906944113494
6.609859136290097
6.614513097473923
6.618621546854916
6.622126046607155
6.625060176612681
6.627497068123255
6.629522937567669
6.631224496679334
6.632683812115691
6.633977122923206
6.635175705739521
6.63634781312986
6.637561165363454
6.638885674658255
6.6403961945961
6.642175051905761
6.644313967558154
6.646914669192967
6.650086808014757
6.653940756898882
6.658570514450127
6.66401806586898
6.670203229274936
6.676794072994505
6.682987479128688
6.687563364932551
6.689256787356055
8.514263668889523
8.515037746176537
8.517179704539773
8.52024670498344
8.523726205665357
8.527209326440156
8.530446356306872
8.533324580387106
8.535817892276196
8.537948764189194
8.539764156923727
8.54132152292827
8.542681377832498
8.54390391970672
8.545048031598904
8.546171670974351
8.547333020092273
8.548591945054115
8.55001141559501
8.551658498169036
8.553604384623448
8.555922638485132
8.558684266628825
8.561947519406761
8.56573895580817
8.570021022475252
8.57464118970586
8.579264500028694
8.583343999299105
8.586194761246288
8.58722526066578
10.43064806412941
10.431141300790092
10.432531947443337
10.43458797593051
10.437019326171082
10.43956105347225
10.442020985389204
10.444286441309485
10.446308708709667
10.448082152014639
10.449627234586082
10.450978761900867
10.452178583812099
10.453271533999516
10.45430350690701
10.455320884360834
10.456370738910348
10.457501349464222
10.458762641934563
10.460206131269114
10.46188382379825
10.463845344323547
10.466132194729537
10.468767791320703
10.471741568939793
10.47498610618231
10.478349164415194
10.481572804023317
10.48430235855525
10.486149954392605
10.486805487380906
12.345198625299641
12.345516576538165
12.346422966954343
12.34779115263193
12.349453851932891
12.351245741446885
12.353033412221757
12.354727062719721
12.356278031490163
12.357669638426794
12.358907164480657
12.36000960956871
12.361003871301014
12.361921075957685
12.362794508584809
12.36365863362225
12.364548771509094
12.36550103829366
12.366552201838974
12.36773907960615
12.369097028884434
12.370656980751988
12.372440312712376
12.37445091961535
12.376664061315312
12.379012829078942
12.381375862164386
12.383573930207746
12.385385531875079
12.386586807405077
12.387008384898776
14.25815897137532
14.258355517220796
14.258919950843008
14.25978381007145
14.26085353988247
14.26203189603408
14.263235077530217
14.264401720140174
14.265494327981887
14.266495902519805
14.26740484280235
14.268230007353969
14.268986823367609
14.269694597403463
14.270374831669319
14.271050277010394
14.271744447322925
14.272481318222244
14.273284955696937
14.274178801220703
14.275184302822176
14.276318550186886
14.277590539089482
14.278995878407663
14.28051009984417
14.282081744595741
14.283627824700812
14.28503564830751
14.286174814663289
14.286920031517592
14.287179676520969
16.1696468019103
16.169749994238295
16.17004802281286
16.17050917939428
16.171089190137643
16.171740543629053
16.17242051640565
16.173096037252165
16.173745233972113
16.17435653692702
16.174926614888044
16.17545807760305
16.175957498214583
16.17643394389232
16.176897980211915
16.1773610448498
16.177835061205908
16.178332146253062
16.178864276268744
16.179442764025847
16.18007738842948
16.180775018165683
16.181537580621356
16.182359377605327
16.183223970277787
16.184101369033737
16.184946818849216
16.185702817733677
16.18630560504042
16.186695846186925
16.186831079482932
18.079717599301695
18.079740120790223
18.079806352638002
18.07991254018313
18.080053157549997
18.08022176966823
18.080411883879606
18.0806176094724
18.08083406126738
18.081057507720022
18.081285342299758
18.081515942295795
18.081748481600503
18.081982740166588
18.082218923536715
18.082457498488893
18.082699043904455
18.082944104236777
18.083193035831616
18.083445834820928
18.08370193743769
18.08395999186372
18.08421760464307
18.08447109780964
18.084715320980113
18.08494360857788
18.085147981262825
18.085319677887775
18.085450038666323
18.085531637495865
18.08555943319554
18.186285768576575
18.186304536281405
18.186359932827187
18.186449380371847
18.186569015186404
18.18671421479497
18.186880147981586
18.18706223601781
18.187256476392903
18.18745960696051
18.187669146680026
18.187883341308865
18.18810105621253
18.188321648364106
18.188544829917973
18.18877053255439
18.188998776820206
18.18922953996578
18.18946261861204
18.189697481413038
18.18993310923814
18.190167828042025
18.19039914182108
18.190623598812838
18.190836721853863
18.19103306063017
18.191206415594742
18.19135026531873
18.19145838538531
18.191525579328303
18.191548383153822
18.29274036026623
18.29275633250537
18.292803612101462
18.29288037386335
18.292983841333303
18.293110618883468
18.293257053479504
18.293419556192
18.293594850352516
18.293780120224074
18.293973076892875
18.294171950291542
18.294375432854125
18.29458259714218
18.294792796464314
18.29500555776695
18.29522047335596
18.295437088795552
18.295654787381213
18.295872670603398
18.296089436017844
18.296303260149767
18.29651169403339
18.29671159850123
18.296899137893874
18.297069867665243
18.297218938402064
18.29734142387477
18.297432753801598
18.297489194494414
18.297508293293436
18.399086666973265
18.39910051167343
18.399141584429287
18.39920855538987
18.399299376390275
18.399411495729815
18.399542100488592
18.39968834141773
18.3998475192943
18.400017208760982
18.400195327924553
18.40038015280811
18.40057029173644
18.400764634687626
18.40096228314692
18.401162468528923
18.401364466362963
18.401567505699134
18.401770676479657
18.401972836718834
18.40217252277604
18.402367870707074
18.40255655476897
18.402735764126067
18.40290222734243
18.403052306136722
18.403182166710167
18.403288026497503
18.40336645821888
18.40341471185393
18.403431002688947
18.50532862961919
18.50534082710638
18.50537707586251
18.505436379872933
18.50551718873118
18.5056175398033
18.505735223417638
18.505867941241515
18.50601344511141
18.506169636002205
18.506334628061726
18.506506772268025
18.50668464861136
18.506867036850203
18.507052868562624
18.507241167018908
18.507430981804944
18.507621318599643
18.50781106794501
18.507998935969557
18.508183380931058
18.508362562889054
18.50853431064081
18.508696121969148
18.508845200735585
18.50897854392437
18.50909307995232
18.509185852836293
18.509254237601954
18.509296159885174
18.509310287203913
18.61146919116623
18.611480097172482
18.611512551887575
18.61156578874813
18.611638603338925
18.611729449471444
18.6118365537265
18.611958027961638
18.612091972668946
18.61223655441186
18.61239006116602
18.612550928330336
18.612717740784593
18.612889217823614
18.613064181670367
18.6132415146571
18.61342011134156
18.61359882620382
18.613776421045912
18.613951515338165
18.614122543240292
18.614287723545633
18.614445044909935
18.61459227865222
18.61472701890855
18.61484675840406
18.614948997976153
18.615031383959725
18.615091862396195
18.615128831442053
18.61514127121435
18.714053285539233
18.71406315804533
18.714092568314086
18.71414091049768
18.71420722480266
18.714290263655858
18.714388572443678
18.714500570217112
18.71462462694716
18.71475912352041
18.714902498119265
18.71505327132522
18.715210053368924
18.715371538342946
18.715536484735008
18.71570368618214
18.715871937932494
18.716039999528295
18.71620655764981
18.71637019217978
18.716529348736472
18.71668232281672
18.71682725649879
18.716962157288823
18.71708493670729
18.717193474146583
18.71728570289222
18.71735971300216
18.71741386299142
18.717446887390853
18.717457986696544
18.80960370924034
18.80961273405457
18.809639641094893
18.809683939219404
18.809744844639592
18.809821327280535
18.809912168612836
18.810016020154862
18.810131461637674
18.810257047365308
18.81039134455306
18.810532956189878
18.810680530795377
18.810832762646864
18.810988380990644
18.811146131210975
18.811304752683576
18.811462953531805
18.811619385816535
18.811772623812423
18.811921148027412
18.812063339107112
18.812197481535677
18.812321784810198
18.81243441850669
18.812533565248973
18.812617488178073
18.812684608506114
18.812733587405006
18.812763403145553
18.81277341458937
18.89809432096188
18.898102641976187
18.898127466389333
18.898168386171577
18.898224745955183
18.89829567606011
18.898380134600565
18.89847695038678
18.89858486716966
18.89870257956978
18.898828764679003
18.898962102343496
18.899101285947232
18.899245026510368
18.899392048116958
18.899541076943844
18.899690827941868
18.899839989048928
18.899987205979365
18.900131069768364
18.900270109144927
18.900402791038985
18.900527528409146
18.900642701731314
18.900746690001206
18.900837914427463
18.90091489154386
18.900976292207407
18.90102100244262
18.90104817965855
18.901057298281064
18.979506011821595
18.979513742882432
18.979536818509203
18.979574891731698
18.979627402112342
18.979693599665787
18.97977257604715
18.979863296425403
18.979964633584906
18.98007539598151
18.980194353916332
18.980320257368767
18.980451847025673
18.98058786085207
18.980727033941285
18.98086809339433
18.981009751706658
18.981150698223328
18.981289591227934
18.981425052384083
18.981555665087953
18.98167997936615
18.981796522020204
18.98190381741689
18.982000414568887
18.982084923227532
18.98215605601037
18.982212673794283
18.982253831578912
18.98227882013336
18.982287199382874
19.05382612679845
19.05383335998221
19.05385495761436
19.053890618153552
19.05393985218534
19.054002000047582
19.054076255363505
19.054161689076246
19.05425727615541
19.054361917762467
19.054474463155
19.05459372538541
19.05471849219135
19.05484753412653
19.054979607534772
19.055113453730904
19.055247797394777
19.05538134346824
19.05551277469045
19.055640751084702
19.05576391252621
19.05588088650147
19.055990299449082
19.056090796409105
19.05618106461702
19.056259863512278
19.05632605851684
19.05637865643404
19.05641684056858
19.05644000211346
19.056447765026
19.121047736072157
19.121054547550436
19.12107489180228
19.121108501468264
19.121154940845678
19.121213619120056
19.121283808486705
19.121364662586856
19.121455237817237
19.121554511113512
19.121661398547293
19.121774769252845
19.121893456010966
19.122016264346293
19.122141977689445
19.122269359683937
19.12239715626221
19.12252409656388
19.122648894467027
19.122770251706722
19.122886863368116
19.12299742746257
19.12310065678594
19.123195297299343
19.1232801487608
19.123354089935596
19.123416106053188
19.12346531684673
19.123501003917205
19.123522634826756
19.12352988199087
19.181169178191876
19.18117563244686
19.18119491392223
19.18122678121925
19.181270839619796
19.18132655122541
19.181393249228282
19.181470152334235
19.181556382129727
19.18165097761897
19.18175291128637
19.181861101594233
19.18197442320823
19.18209171667478
19.182211795100834
19.18233344870587
19.182455449565975
19.18257655545857
19.18269551427919
19.1828110697336
19.18292196882605
19.183026972547417
19.18312486785405
19.183214484816624
19.183294714806426
19.1833645319599
19.183423015861223
19.183469374150818
19.183502964259908
19.183523312277458
19.183530127595212
19.234192347549865
19.23419850044847
19.234216884639448
19.2342472785706
19.23428931898955
19.234342508895
19.234406229054283
19.234479749543585
19.234562244233725
19.234652802931866
19.234750445516656
19.234854133306683
19.23496277893396
19.23507525635214
19.23519040855561
19.235307053724053
19.235423991872086
19.235540010791507
19.23565389251997
19.235764420826996
19.235870390036325
19.235970616359026
19.236063949773545
19.23614929005996
19.23622560300826
19.236291938982376
19.236347452006026
19.23639141835922
19.23642325421062
19.236442530718307
19.236448985638425
19.280122669578425
19.280128570630907
19.28014620447267
19.280175364759273
19.280215712442946
19.28026678217093
19.28032799183108
19.280398652020974
19.280477978431747
19.280565102230216
19.280659082740325
19.28075891793301
19.280863553982062
19.28097189544502
19.281082813682815
19.281195154118844
19.281307744228595
19.281419400962523
19.281528938650084
19.28163517771442
19.28173695436608
19.28183313227926
19.281922614265298
19.28200435734411
19.28207738737923
19.282140815415016
19.28219385406418
19.28223583314343
19.282266214313665
19.282284603459356
19.282290760117775
19.318967112955598
19.318972807000115
19.31898982377125
19.319017968529607
19.319056920760907
19.31910623947447
19.319165371339377
19.31923365867204
19.31931035029426
19.319394610633353
19.319485531317834
19.319582140995216
19.319683414616055
19.319788283690553
19.3198956451715
19.32000436948059
19.320113309424435
19.320221308644566
19.32032721050789
19.320429867646112
19.3205281522029
19.32062096766549
19.320707260294235
19.32078603339263
19.32085636071362
19.320917401107046
19.320968412898324
19.32100876735121
19.321037961132927
19.321055626730868
19.321061540319445
19.350733923534094
19.350739451998674
19.35075597499909
19.350783306524278
19.350821140040093
19.350869053015767
19.35092651406319
19.350992889876064
19.351067454994933
19.351149399986134
19.351237842240884
19.351331835289344
19.351430377863515
19.351532424173392
19.351636893088823
19.35174267668363
19.35184864977813
19.351953679086886
19.352056632772154
19.352156390524115
19.352251854147212
19.352341959438597
19.352425687379743
19.3525020777645
19.352570241669007
19.352629374840742
19.352678770605085
19.352717831754234
19.352746081449318
19.352763172236518
19.352768892803773
19.375431282577765
19.375436684440984
19.37545282979685
19.375479538990064
19.375516515690833
19.375563350892197
19.375619529361774
19.37568443585791
19.375757364132717
19.375837524468103
19.37592405390823
19.376016025209868
19.376112455734507
19.376212317716295
19.376314547630564
19.376418055076417
19.376521732730502
19.37662446595395
19.376725142777833
19.376822664326447
19.37691595560303
19.377003977359507
19.377085737083465
19.377160302137096
19.377226811540957
19.37728448845703
19.377332652049315
19.377370728264992
19.377398259643446
19.377414913358024
19.377420487203636
19.393066367666624
19.393071680200297
19.393087559035756
19.393113828842743
19.393150200247973
19.393196273489927
19.393251544422437
19.393315410260662
19.393387178083486
19.39346607194737
19.393551242741
19.39364177689009
19.393736705128692
19.393835012749573
19.39393564908299
19.394037536588844
19.394139581065133
19.394240681540676
19.39433974052686
19.39443567464652
19.39452742553008
19.39461397165702
19.394694339187367
19.394767614757743
19.39483295679678
19.394889607398447
19.394936903485295
19.39497428685663
19.395001313277717
19.395017659882402
19.395023130657712
19.403644994647514
19.403650254003935
19.403665974160468
19.4036919823006
19.403727993099224
19.40377361218502
19.403828341891707
19.403891586738894
19.403962661651228
19.40404079883263
19.40412515740484
19.404214831970286
19.40430886131148
19.404406238626525
19.40450592106516
19.40460683893416
19.404707906043868
19.40480802975597
19.40490612137859
19.405001106903942
19.405091937958048
19.40517760361725
19.40525714114307
19.405329648575062
19.405394295774013
19.405450335943588
19.405497116394475
19.405534088174836
19.405560814750718
19.405576979046597
19.405582388645765
19.407170774155848
19.40717601585477
19.407191683318576
19.407217604555555
19.407253495569712
19.40729896376118
19.40735351359581
19.40741655200073
19.40748739649146
19.40756528196881
19.40764937028699
19.40773875876992
19.407832488886942
19.40792955648265
19.408028921330445
19.408129516373883
19.40823025811655
19.408330056719088
19.408427826439365
19.408522496403812
19.408613021573295
19.408698394549674
19.408777656278218
19.408849908573014
19.40891432507084
19.408970162638056
19.409016772004744
19.409053607259445
19.409080234397095
19.409096338242353
19.409101727558017
