# vtk DataFile Version 2.0
Unstructured Grid Example
ASCII
DATASET UNSTRUCTURED_GRID

POINTS 961 float
0.400000004 0.01999999956 0
0.3866666556 0.01999999956 0
0.3733333348 0.01999999956 0
0.3600000144 0.01999999956 0
0.346666664 0.01999999956 0
0.3333333432 0.01999999956 0
0.3199999928 0.01999999956 0
0.3066666724 0.01999999956 0
0.293333322 0.01999999956 0
0.2800000012 0.01999999956 0
0.2666666804 0.01999999956 0
0.25333333 0.01999999956 0
0.2399999948 0.01999999956 0
0.226666674 0.01999999956 0
0.2133333384 0.01999999956 0
0.2000000028 0.01999999956 0
0.1866666676 0.01999999956 0
0.173333332 0.01999999956 0
0.1599999964 0.01999999956 0
0.1466666608 0.01999999956 0
0.1333333404 0.01999999956 0
0.1199999972 0.01999999956 0
0.1066666692 0.01999999956 0
0.0933333336 0.01999999956 0
0.0799999984 0.01999999956 0
0.06666667 0.01999999956 0
0.0533333348 0.01999999956 0
0.03999999912 0.01999999956 0
0.02666666732 0.01999999956 0
0.01333333364 0.01999999956 0
0.0 0.01999999956 0
0.400000004 0.00666666684 0
0.3866666556 0.00666666684 0
0.3733333348 0.00666666684 0
0.3600000144 0.00666666684 0
0.346666664 0.00666666684 0
0.3333333432 0.00666666684 0
0.3199999928 0.00666666684 0
0.3066666724 0.00666666684 0
0.293333322 0.00666666684 0
0.2800000012 0.00666666684 0
0.2666666804 0.00666666684 0
0.25333333 0.00666666684 0
0.2399999948 0.00666666684 0
0.226666674 0.00666666684 0
0.2133333384 0.00666666684 0
0.2000000028 0.00666666684 0
0.1866666676 0.00666666684 0
0.173333332 0.00666666684 0
0.1599999964 0.00666666684 0
0.1466666608 0.00666666684 0
0.1333333404 0.00666666684 0
0.1199999972 0.00666666684 0
0.1066666692 0.00666666684 0
0.0933333336 0.00666666684 0
0.0799999984 0.00666666684 0
0.06666667 0.00666666684 0
0.0533333348 0.00666666684 0
0.03999999912 0.00666666684 0
0.02666666732 0.00666666684 0
0.01333333364 0.00666666684 0
0.0 0.00666666684 0
0.400000004 -0.00666666684 0
0.3866666556 -0.00666666684 0
0.3733333348 -0.00666666684 0
0.3600000144 -0.00666666684 0
0.346666664 -0.00666666684 0
0.3333333432 -0.00666666684 0
0.3199999928 -0.00666666684 0
0.3066666724 -0.00666666684 0
0.293333322 -0.00666666684 0
0.2800000012 -0.00666666684 0
0.2666666804 -0.00666666684 0
0.25333333 -0.00666666684 0
0.2399999948 -0.00666666684 0
0.226666674 -0.00666666684 0
0.2133333384 -0.00666666684 0
0.2000000028 -0.00666666684 0
0.1866666676 -0.00666666684 0
0.173333332 -0.00666666684 0
0.1599999964 -0.00666666684 0
0.1466666608 -0.00666666684 0
0.1333333404 -0.00666666684 0
0.1199999972 -0.00666666684 0
0.1066666692 -0.00666666684 0
0.0933333336 -0.00666666684 0
0.0799999984 -0.00666666684 0
0.06666667 -0.00666666684 0
0.0533333348 -0.00666666684 0
0.03999999912 -0.00666666684 0
0.02666666732 -0.00666666684 0
0.01333333364 -0.00666666684 0
0.0 -0.00666666684 0
0.400000004 -0.01999999956 0
0.3866666556 -0.01999999956 0
0.3733333348 -0.01999999956 0
0.3600000144 -0.01999999956 0
0.346666664 -0.01999999956 0
0.3333333432 -0.01999999956 0
0.3199999928 -0.01999999956 0
0.3066666724 -0.01999999956 0
0.293333322 -0.01999999956 0
0.2800000012 -0.01999999956 0
0.2666666804 -0.01999999956 0
0.25333333 -0.01999999956 0
0.2399999948 -0.01999999956 0
0.226666674 -0.01999999956 0
0.2133333384 -0.01999999956 0
0.2000000028 -0.01999999956 0
0.1866666676 -0.01999999956 0
0.173333332 -0.01999999956 0
0.1599999964 -0.01999999956 0
0.1466666608 -0.01999999956 0
0.1333333404 -0.01999999956 0
0.1199999972 -0.01999999956 0
0.1066666692 -0.01999999956 0
0.0933333336 -0.01999999956 0
0.0799999984 -0.01999999956 0
0.06666667 -0.01999999956 0
0.0533333348 -0.01999999956 0
0.03999999912 -0.01999999956 0
0.02666666732 -0.01999999956 0
0.01333333364 -0.01999999956 0
0.0 -0.01999999956 0
0.400000004 -0.03333333508 0
0.3866666556 -0.03333333508 0
0.3733333348 -0.03333333508 0
0.3600000144 -0.03333333508 0
0.346666664 -0.03333333508 0
0.3333333432 -0.03333333508 0
0.3199999928 -0.03333333508 0
0.3066666724 -0.03333333508 0
0.293333322 -0.03333333508 0
0.2800000012 -0.03333333508 0
0.2666666804 -0.03333333508 0
0.25333333 -0.03333333508 0
0.2399999948 -0.03333333508 0
0.226666674 -0.03333333508 0
0.2133333384 -0.03333333508 0
0.2000000028 -0.03333333508 0
0.1866666676 -0.03333333508 0
0.173333332 -0.03333333508 0
0.1599999964 -0.03333333508 0
0.1466666608 -0.03333333508 0
0.1333333404 -0.03333333508 0
0.1199999972 -0.03333333508 0
0.1066666692 -0.03333333508 0
0.0933333336 -0.03333333508 0
0.0799999984 -0.03333333508 0
0.06666667 -0.03333333508 0
0.0533333348 -0.03333333508 0
0.03999999912 -0.03333333508 0
0.02666666732 -0.03333333508 0
0.01333333364 -0.03333333508 0
0.0 -0.03333333508 0
0.400000004 -0.0466666668 0
0.3866666556 -0.0466666668 0
0.3733333348 -0.0466666668 0
0.3600000144 -0.0466666668 0
0.346666664 -0.0466666668 0
0.3333333432 -0.0466666668 0
0.3199999928 -0.0466666668 0
0.3066666724 -0.0466666668 0
0.293333322 -0.0466666668 0
0.2800000012 -0.0466666668 0
0.2666666804 -0.0466666668 0
0.25333333 -0.0466666668 0
0.2399999948 -0.0466666668 0
0.226666674 -0.0466666668 0
0.2133333384 -0.0466666668 0
0.2000000028 -0.0466666668 0
0.1866666676 -0.0466666668 0
0.173333332 -0.0466666668 0
0.1599999964 -0.0466666668 0
0.1466666608 -0.0466666668 0
0.1333333404 -0.0466666668 0
0.1199999972 -0.0466666668 0
0.1066666692 -0.0466666668 0
0.0933333336 -0.0466666668 0
0.0799999984 -0.0466666668 0
0.06666667 -0.0466666668 0
0.0533333348 -0.0466666668 0
0.03999999912 -0.0466666668 0
0.02666666732 -0.0466666668 0
0.01333333364 -0.0466666668 0
0.0 -0.0466666668 0
0.400000004 -0.0599999988 0
0.3866666556 -0.0599999988 0
0.3733333348 -0.0599999988 0
0.3600000144 -0.0599999988 0
0.346666664 -0.0599999988 0
0.3333333432 -0.0599999988 0
0.3199999928 -0.0599999988 0
0.3066666724 -0.0599999988 0
0.293333322 -0.0599999988 0
0.2800000012 -0.0599999988 0
0.2666666804 -0.0599999988 0
0.25333333 -0.0599999988 0
0.2399999948 -0.0599999988 0
0.226666674 -0.0599999988 0
0.2133333384 -0.0599999988 0
0.2000000028 -0.0599999988 0
0.1866666676 -0.0599999988 0
0.173333332 -0.0599999988 0
0.1599999964 -0.0599999988 0
0.1466666608 -0.0599999988 0
0.1333333404 -0.0599999988 0
0.1199999972 -0.0599999988 0
0.1066666692 -0.0599999988 0
0.0933333336 -0.0599999988 0
0.0799999984 -0.0599999988 0
0.06666667 -0.0599999988 0
0.0533333348 -0.0599999988 0
0.03999999912 -0.0599999988 0
0.02666666732 -0.0599999988 0
0.01333333364 -0.0599999988 0
0.0 -0.0599999988 0
0.400000004 -0.0733333304 0
0.3866666556 -0.0733333304 0
0.3733333348 -0.0733333304 0
0.3600000144 -0.0733333304 0
0.346666664 -0.0733333304 0
0.3333333432 -0.0733333304 0
0.3199999928 -0.0733333304 0
0.3066666724 -0.0733333304 0
0.293333322 -0.0733333304 0
0.2800000012 -0.0733333304 0
0.2666666804 -0.0733333304 0
0.25333333 -0.0733333304 0
0.2399999948 -0.0733333304 0
0.226666674 -0.0733333304 0
0.2133333384 -0.0733333304 0
0.2000000028 -0.0733333304 0
0.1866666676 -0.0733333304 0
0.173333332 -0.0733333304 0
0.1599999964 -0.0733333304 0
0.1466666608 -0.0733333304 0
0.1333333404 -0.0733333304 0
0.1199999972 -0.0733333304 0
0.1066666692 -0.0733333304 0
0.0933333336 -0.0733333304 0
0.0799999984 -0.0733333304 0
0.06666667 -0.0733333304 0
0.0533333348 -0.0733333304 0
0.03999999912 -0.0733333304 0
0.02666666732 -0.0733333304 0
0.01333333364 -0.0733333304 0
0.0 -0.0733333304 0
0.400000004 -0.086666666 0
0.3866666556 -0.086666666 0
0.3733333348 -0.086666666 0
0.3600000144 -0.086666666 0
0.346666664 -0.086666666 0
0.3333333432 -0.086666666 0
0.3199999928 -0.086666666 0
0.3066666724 -0.086666666 0
0.293333322 -0.086666666 0
0.2800000012 -0.086666666 0
0.2666666804 -0.086666666 0
0.25333333 -0.086666666 0
0.2399999948 -0.086666666 0
0.226666674 -0.086666666 0
0.2133333384 -0.086666666 0
0.2000000028 -0.086666666 0
0.1866666676 -0.086666666 0
0.173333332 -0.086666666 0
0.1599999964 -0.086666666 0
0.1466666608 -0.086666666 0
0.1333333404 -0.086666666 0
0.1199999972 -0.086666666 0
0.1066666692 -0.086666666 0
0.0933333336 -0.086666666 0
0.0799999984 -0.086666666 0
0.06666667 -0.086666666 0
0.0533333348 -0.086666666 0
0.03999999912 -0.086666666 0
0.02666666732 -0.086666666 0
0.01333333364 -0.086666666 0
0.0 -0.086666666 0
0.400000004 -0.1000000016 0
0.3866666556 -0.1000000016 0
0.3733333348 -0.1000000016 0
0.3600000144 -0.1000000016 0
0.346666664 -0.1000000016 0
0.3333333432 -0.1000000016 0
0.3199999928 -0.1000000016 0
0.3066666724 -0.1000000016 0
0.293333322 -0.1000000016 0
0.2800000012 -0.1000000016 0
0.2666666804 -0.1000000016 0
0.25333333 -0.1000000016 0
0.2399999948 -0.1000000016 0
0.226666674 -0.1000000016 0
0.2133333384 -0.1000000016 0
0.2000000028 -0.1000000016 0
0.1866666676 -0.1000000016 0
0.173333332 -0.1000000016 0
0.1599999964 -0.1000000016 0
0.1466666608 -0.1000000016 0
0.1333333404 -0.1000000016 0
0.1199999972 -0.1000000016 0
0.1066666692 -0.1000000016 0
0.0933333336 -0.1000000016 0
0.0799999984 -0.1000000016 0
0.06666667 -0.1000000016 0
0.0533333348 -0.1000000016 0
0.03999999912 -0.1000000016 0
0.02666666732 -0.1000000016 0
0.01333333364 -0.1000000016 0
0.0 -0.1000000016 0
0.400000004 -0.1133333372 0
0.3866666556 -0.1133333372 0
0.3733333348 -0.1133333372 0
0.3600000144 -0.1133333372 0
0.346666664 -0.1133333372 0
0.3333333432 -0.1133333372 0
0.3199999928 -0.1133333372 0
0.3066666724 -0.1133333372 0
0.293333322 -0.1133333372 0
0.2800000012 -0.1133333372 0
0.2666666804 -0.1133333372 0
0.25333333 -0.1133333372 0
0.2399999948 -0.1133333372 0
0.226666674 -0.1133333372 0
0.2133333384 -0.1133333372 0
0.2000000028 -0.1133333372 0
0.1866666676 -0.1133333372 0
0.173333332 -0.1133333372 0
0.1599999964 -0.1133333372 0
0.1466666608 -0.1133333372 0
0.1333333404 -0.1133333372 0
0.1199999972 -0.1133333372 0
0.1066666692 -0.1133333372 0
0.0933333336 -0.1133333372 0
0.0799999984 -0.1133333372 0
0.06666667 -0.1133333372 0
0.0533333348 -0.1133333372 0
0.03999999912 -0.1133333372 0
0.02666666732 -0.1133333372 0
0.01333333364 -0.1133333372 0
0.0 -0.1133333372 0
0.400000004 -0.1266666652 0
0.3866666556 -0.1266666652 0
0.3733333348 -0.1266666652 0
[...]
POINT_DATA 961
SCALARS Temp float 1
LOOKUP_TABLE default
0.7474533111217803
0.7773069745373332
0.7987313476899421
0.8143092768930986
0.825723646300491
0.8341284515898624
0.8403452691622626
0.8449654407898975
0.8484193708489203
0.8510224229293434
0.8530084128312578
0.8545528327793184
0.8557897960075557
0.8568252242844
0.857746687730093
0.8586312106624054
0.8595524196367708
0.8605871143883245
0.8618221709846959
0.8633624391387392
0.8653403598999921
0.867928627732667
0.8713563307224432
0.8759318829538716
0.882073811436773
0.8903544480560013
0.9015621775978182
0.9167925051175772
0.9375867700854994
0.9661818921304479
1.0061262121651933
0.7889205296855317
0.8181941345651126
0.8393884026560967
0.8548810683551462
0.8662562524276769
0.8746449792644837
0.8808569630099389
0.885477899615036
0.8889352431740551
0.8915428220140669
0.8935336635476079
0.8950828889634233
0.8963244800166272
0.8973643553446973
0.8982901532664684
0.899179008283617
0.900104672445764
0.9011440703154736
0.9023841832433983
0.9039299189664806
0.9059136853870156
0.9085079686095353
0.9119413460770336
0.916521162886629
0.922663876560227
0.9309378769119698
0.9421239742049383
0.9573020168222041
0.977980746464992
1.0062843335777718
1.0452894384776061
2.7303745499682455
2.7347237664571455
2.7468451698097875
2.75802508996371
2.767270376337614
2.774626621228125
2.7803868186731204
2.7848672769513754
2.7883485655927247
2.7910635469268685
2.7932006142911083
2.7949112386362676
2.796318147745734
2.797522976401716
2.7986130747225406
2.799667595930254
2.800763158232179
2.801979397649879
2.8034047118051575
2.80514255155065
2.8073186117127946
2.810089159000906
2.81365064061073
2.8182501958168005
2.824195428985236
2.831858432408712
2.8416596483789154
2.853988647131953
2.8689053940176255
2.8850744853263963
2.890879356747627
4.647628969915797
4.6500025293628875
4.655828264373187
4.663107970616096
4.670010640992428
4.675995605800178
4.680974982258974
4.685032476633694
4.68830655093517
4.690943133565942
4.693077589477315
4.694829332533857
4.696302053733645
4.6975863659028425
4.698763387400289
4.699908672178328
4.701096278955889
4.7024029195193116
4.703912219442126
4.705719102513395
4.707934205443175
4.710688015243499
4.714133823189377
4.718447651125594
4.723820753114883
4.730435210803804
4.738400682836126
4.74759809616657
4.757303560608452
4.765072870714836
4.768238286093511
6.5592162324352365
6.560479557153783
6.563893869743296
6.5685169738566085
6.573440610005318
6.578067453804962
6.582151628788325
6.5856350469685605
6.588551122631527
6.59097259860274
6.592985227960185
6.5946752548061935
6.596124302963727
6.597408200350353
6.598597839620738
6.599761105915775
6.600965354914122
6.602280122067582
6.6037798568993455
6.60554644095704
6.607671098606574
6.610255006616011
6.61340722351769
6.617237529005545
6.62183942493037
6.627254697051772
6.633403655438325
6.639956278010689
6.64611400156617
6.650663632843904
6.652347356656917
8.467380752289493
8.468150358018612
8.470279910762338
8.473329051959643
8.476788114797733
8.48025052019918
8.48346797264232
8.486328409198482
8.48880589187146
8.490922789501584
8.492725822038812
8.494272141831273
8.495621946791964
8.49683511867544
8.497970231334058
8.499084938127345
8.500237115986309
8.501486316450872
8.502895177704357
8.50453041235019
8.506462836265516
8.508765625137695
8.511509414314347
8.514752156690964
8.51852029463817
8.522776521199711
8.527369201191359
8.53196529684523
8.536020961936636
8.538855146575125
8.539879667286296
10.373237869302207
10.373728186902323
10.37511057633972
10.37715431293564
10.379570969071894
10.382097096549293
10.38454161630674
10.386792499386384
10.388801328916534
10.39056252504879
10.392096461400975
10.393437773769577
10.394628103128763
10.395712057743046
10.396735300866528
10.397743980599707
10.398784932105775
10.399906190409283
10.401157428652981
10.40258990058162
10.404255349227993
10.406203150334047
10.40847460346455
10.41109302546305
10.414047943920659
10.417272350609434
10.420614896766587
10.423819125160797
10.42653239162573
10.428369025349028
10.429020679675894
12.277278535461441
12.277594530222187
12.278495318847208
12.279854972311613
12.281507155561915
12.283287485067802
12.285063317033277
12.286745374318967
12.288285292172937
12.28966651014104
12.290894307334856
12.291987606143055
12.292973183325977
12.293882021335993
12.294747249870811
12.29560317189022
12.29648494192098
12.297428505928993
12.298470458276725
12.299647442859158
12.300994651814193
12.302542876141533
12.304313407175615
12.306310151965132
12.308508543414359
12.310842082283115
12.313190121990019
12.31537446900927
12.317174892325806
12.31836881001703
12.31878781458882
14.179745986484969
14.17994123666664
14.1805019265979
14.18135998399131
14.182422388587444
14.183592455870759
14.184786873327477
14.185944643224556
14.187028505641479
14.188021585883671
14.188922322788645
14.189739557907288
14.190488666187386
14.191188881427557
14.191861621737553
14.192529547613944
14.193216078829524
14.193945094575481
14.194740563994632
14.195625835116363
14.196622273441681
14.19774691014006
14.199008727313512
14.200403394480293
14.201906615578386
14.203467253986732
14.20500281868549
14.206401278369267
14.207532987957022
14.208273376657315
14.20853134787949
16.0807581675107
16.080860567213698
16.0811562849397
16.081613797062015
16.08218908935087
16.082834932660905
16.0835088632646
16.084178019633914
16.084820680139966
16.085425371261692
16.08598881455682
16.086513641728324
16.0870064277701
16.08747622943451
16.087933594830286
16.08838994028634
16.088857165758768
16.08934736395822
16.089872487597003
16.090443829158605
16.091071155076524
16.091761336747958
16.092516330546353
16.09333050821351
16.094187558900586
16.095057694353176
16.095896440520065
16.096646644030855
16.097244923353596
16.0976322927988
16.097766538829
17.980371073974695
17.980393233731775
17.98045839037086
17.980562817793572
17.980701033541184
17.98086665587189
17.98105325038947
17.981254985688935
17.981467034361245
17.981685719998055
17.981908488328063
17.98213376644461
17.98236077624625
17.982589344483827
17.982819722839164
17.98305242403137
17.983288073001248
17.983527260693243
17.983770390718153
17.984017507687984
17.984268098133096
17.984520863092328
17.984773465480313
17.985022288043737
17.985262246057854
17.985486744325176
17.985687877043198
17.9858569563874
17.985985390365656
17.98606580849032
17.986093206331116
18.086356588346547
18.08637501290025
18.08642938761439
18.08651715668572
18.086634490602567
18.086776810218737
18.08693933347188
18.087117533835634
18.08730746191789
18.087505908422422
18.08771044425861
18.087919366167032
18.08813158973474
18.088346521628
18.08856392346096
18.088783776432003
18.08900615086748
18.089231074280885
18.08945839427934
18.089687631516455
18.089917820240956
18.090147341554385
18.090373756824746
18.090593674092577
18.09080267836234
18.090995383092054
18.091165652425932
18.091307025768923
18.091413332865145
18.091479420356286
18.091501852142695
18.192230204978824
18.192245844786648
18.192292133249
18.192367263140383
18.19246848636696
18.192592444088675
18.192735526247294
18.192894191084854
18.19306521158895
18.193245823063805
18.19343378824485
18.193627388990784
18.193825369852203
18.19402685566544
18.19423125224875
18.194438139413087
18.194647162747337
18.194857921612247
18.19506985371477
18.195282115689636
18.195493461107873
18.195702123470717
18.195905711840084
18.196101145931436
18.196284649390368
18.19645183643021
18.196597914274395
18.19671800898872
18.196807595479225
18.196862975169605
18.19688171774265
18.29799719815939
18.298010714866724
18.298050808893052
18.29811616579795
18.298204762065087
18.298314078561617
18.298441341284715
18.298583744797725
18.29873863721486
18.29890364307668
18.299076732142094
18.299256233375566
18.299440809064123
18.299629403945275
18.29982117495941
18.30001540963353
18.30021144018595
18.300408552887703
18.300605895386454
18.300802383832995
18.300996613088778
18.301186777928486
18.3013706113744
18.301545360952087
18.301707812559727
18.301854383205356
18.301981290929554
18.30208479978651
18.302161521847644
18.30220873709631
18.302224679659687
18.403661502767545
18.403673371397456
18.40370863827127
18.403766321212533
18.40384489216881
18.40394241846146
18.40405672683173
18.40418556073184
18.404326718042256
18.404478149209726
18.40463802049426
18.40480473709858
18.404976934969064
18.405153451190575
18.40533327579395
18.40551549145099
18.405699207879614
18.405883491438818
18.406067293705878
18.406249381987408
18.406428275621874
18.40660219531539
18.406769029721502
18.406926335077994
18.40707137158208
18.40720118943153
18.407312765894773
18.407403188044164
18.40746986660131
18.4075107540248
18.40752453450418
18.509226066151232
18.509236637732737
18.509268093539077
18.509319679937555
18.509390213555278
18.509478176697638
18.509581831023276
18.50969932921697
18.509828817421305
18.50996851195436
18.51011675389587
18.510272034543085
18.510432997016082
18.510598420729774
18.51076718954921
18.51093824867324
18.511110556406926
18.511283031546984
18.51145450045346
18.511623647041105
18.511788969411796
18.511948749312488
18.51210103687246
18.512243662686068
18.51237427719988
18.512490425513626
18.51258965579712
18.51266965547996
18.512728404220045
18.512764325159683
18.512776413826707
18.611280455657415
18.611289986737585
18.611318376905057
18.611365032716265
18.611429014669863
18.611509102876795
18.61160387711399
18.61171179686751
18.61183127779662
18.611960751099822
18.612098709175235
18.61224373016015
18.61239448468428
18.61254972954748
18.612708287806736
18.61286901913444
18.613030785828975
18.613192415074217
18.613352661338517
18.613510171963654
18.613663459188604
18.613810883690576
18.613950650698854
18.614080828051932
18.614199383993682
18.614304250094133
18.614393406266906
18.614464982621115
18.614517370121984
18.61454932723142
18.614560069124437
18.706391067153827
18.706399745321747
18.706425616471623
18.706468201508017
18.706526736421466
18.70660021826188
18.706687462408592
18.706787160531896
18.706897938065744
18.70701840000971
18.707147168581564
18.70728290551876
18.707424321313297
18.70757017485427
18.707719262128094
18.707870396915983
18.70802238811109
18.708174013961344
18.70832399672071
18.708470980355678
18.708613513963808
18.708750044992414
18.70887892228427
18.708998416419742
18.70910675398602
18.70920216964425
18.709282972675716
18.709347623630176
18.709394815340147
18.709423549298787
18.70943319855743
18.794528501882787
18.794536472983836
18.794560251610847
18.794599441513764
18.794653406714943
18.79472130422237
18.794802125659892
18.79489473971464
18.794997935762947
18.795110459296993
18.795231042871833
18.795358425835847
18.795491364579288
18.795628636015685
18.79576903245252
18.795911350092275
18.796054375112288
18.796196867295187
18.796337544207624
18.79647506810327
18.796608037627514
18.796734987579686
18.796854396042036
18.79696470501138
18.797064350607744
18.79715180589794
18.797225633147157
18.797284542000238
18.79732744955639
18.79735353593205
18.79736228939145
18.87566823294489
18.875675612786615
18.875697638631156
18.87573397506431
18.87578408070434
18.875847231860487
18.87592255330567
18.876009049757986
18.8761056394189
18.876211181571104
18.876324502125247
18.876444410911716
18.876569712170035
18.87669921048291
18.876831710037997
18.876966008939164
18.877100891944586
18.877235121287672
18.877367428102307
18.87749650617083
18.877621009560354
18.87773955673577
18.87785073997786
18.877953145304428
18.87804537876506
18.878126101692615
18.878194072019408
18.878248188918846
18.87828753797406
18.878311432244793
18.878319445216015
18.94979027342961
18.949797155922212
18.949817705283767
18.94985163132084
18.94989846335508
18.949957567624228
18.950028170443886
18.95010938189609
18.9502002220153
18.950299642530517
18.950406548167123
18.950519811816914
18.95063828488958
18.950760804796523
18.95088619731687
18.951013275182973
18.95114083579301
18.951267657437484
18.951392496133646
18.95151408438251
18.951631132988435
18.951742338008025
18.95184639134878
18.951941999545795
18.952027906580145
18.952102923071767
18.952165959285345
18.952216059826974
18.95225243812375
18.95227450728399
18.952281904579657
19.016878777066974
19.016885239980937
19.016904542271767
19.016936427721227
19.01698047903787
19.017036130890872
19.017102687693264
19.017179341726653
19.017265193964167
19.01735927145862
19.017460545359313
19.01756794432327
19.017680364564782
19.017796678302414
19.01791573830237
19.018036379573257
19.01815742073953
19.01827766426588
19.01839589726282
19.018510893852493
19.018621419893456
19.018726241731994
19.01882413731115
19.018913913681082
19.01899442686757
19.019064606289106
19.019123481472782
19.01917020942955
19.01920410141874
19.019224646553283
19.019231530330423
19.07692197853787
19.07692808763818
19.076946337309856
19.07697649708528
19.077018190322093
19.077070904164504
19.077134003501175
19.077206745103584
19.077288294533382
19.07737774030767
19.077474109400967
19.07757637924101
19.077683487406844
19.077794340658
19.07790782099134
19.07802278957198
19.078138090763503
19.078252555264463
19.078365003785564
19.078474251975585
19.078579117130907
19.07867842805275
19.078771036275732
19.078855832352993
19.078931763292296
19.07899785324776
19.079053225487698
19.0790971243688
19.079128936502272
19.079148209161914
19.0791546645912
19.129910930859303
19.129916742924255
19.129934108202754
19.12996281586173
19.13000252038244
19.130052749349073
19.130112914673106
19.13018232386961
19.130260194105944
19.130345663990774
19.13043780716687
19.13053564319077
19.130638146887666
19.130744257716785
19.130852886868357
19.13096292278431
19.13107323708918
19.131182689817983
19.13129013513836
19.131394428064816
19.131494432498567
19.131589031729828
19.131677139570694
19.1317577155351
19.131829780310074
19.13189243356559
19.13194487234794
19.13198640906596
19.132016488579737
19.132034702864765
19.132040802300658
19.17583995930584
19.1758455243559
19.175862153708536
19.1758896515301
19.175927696167772
19.17597584639708
19.17603355069001
19.1761001564367
19.17617492191074
19.176257026314794
19.17634558193589
19.176439644159082
19.176538220514058
19.176640280220926
19.176744761991646
19.176850580666486
19.1769566344853
19.17706181179469
19.17716499820446
19.177265084529896
19.177360975704165
19.177451601627666
19.17753592810028
19.1776129710493
19.17768181044046
19.177741605877817
19.177791612317485
19.17783119511314
19.177859844131984
19.177877185715236
19.177882991801233
19.21470516457303
19.214710527550245
19.214726554571193
19.21475306121035
19.214789744026934
19.214836185721538
19.214891863007555
19.214956154364252
19.215028350491785
19.215107663088162
19.215193235933196
19.21528415424142
19.215379453446502
19.215478128831133
19.215579143797754
19.21568143727591
19.2157839319233
19.215885541862423
19.215985180825534
19.216081770924777
19.21617425212179
19.21626159323891
19.21634280265463
19.216416941741304
19.216483137559706
19.21654059678392
19.2165886194224
19.216626611706705
19.21665409804833
19.216670731050293
19.2166762990788
19.24650463557425
19.246509837622135
19.246525384764723
19.24655110112805
19.24658669696212
19.24663177303236
19.246685827504223
19.24674826265796
19.246818394263258
19.246895459445753
19.246978626986692
19.247067006182238
19.247159655415324
19.247255591813694
19.247353799826023
19.247453239151923
19.247552853574547
19.247651579398944
19.247748354264253
19.247842126459073
19.247931864735865
19.248016569375963
19.248095282654642
19.248167101647546
19.248231189999583
19.24828679060427
19.24833323786584
19.248369969027365
19.248396534577083
19.248412606870264
19.248417986599122
19.27123755486331
19.271242634326654
19.271257815825418
19.271282929693434
19.27131769614226
19.27136172912887
19.27141454256007
19.2714755562922
19.271544104753367
19.27161944417555
19.271700762337602
19.271787187068934
19.271877794658227
19.271971619510623
19.272067662916715
19.272164901326118
19.272262295596295
19.27235879989486
19.272453370948277
19.272544977705383
19.272632611356567
19.272715296397003
19.272792100893895
19.272862148812976
19.272924631110183
19.27297881751543
19.273024067759295
19.273059841803384
19.273085709163393
19.273101356564798
19.273106593649878
19.28890365479555
19.288908648020435
19.288923572234527
19.288948261985016
19.2889824442566
19.289025742000177
19.2890776798945
19.28913768988105
19.28920511929275
19.289279237669824
19.289359246132342
19.28944428564452
19.289533445308198
19.289625772008588
19.289720279298223
19.2898159558844
19.289911775137224
19.290006704281517
19.290099713915982
19.290189787886664
19.290275933421185
19.290357192169246
19.2904326503198
19.290501450591716
19.290562802863985
19.290615995357204
19.290660405170648
19.290695507786996
19.290720885682294
19.290736235348362
19.29074137250125
19.299503187021045
19.299508129014363
19.299522900363257
19.29954733805919
19.299581173020858
19.299624033432583
19.29967545025684
19.299734862507247
19.299801625098194
19.29987501542484
19.299954242523835
19.300038455199708
19.300126750249778
19.300218182098924
19.300311771743957
19.3004065153571
19.300501393934994
19.300595382648492
19.30068746050787
19.30077662034784
19.300861879018658
19.300942288405132
19.301016945450645
19.301085003949154
19.301145684907283
19.301198287378885
19.301242198607593
19.301276903118236
19.30130199092211
19.30131716418077
19.301322242132898
19.303036322742205
19.30304124774199
19.303055968382125
19.3030803224553
19.30311404217056
19.303156757430408
19.3032080012628
19.30326721500983
19.303333756086808
19.30340690448606
19.30348587186881
19.303569809646216
19.30365781718189
19.303748951422158
19.303842235859147
19.303936669171126
19.304031234915975
19.304124910931044
19.304216679044504
19.304305535095086
19.304390499140325
19.30447062646693
19.304545017583546
19.304612829946834
19.3046732882356
19.304725695072253
19.30476944103689
19.304804013624437
19.30482900531888
19.304844120140867
19.304849178483607
