# vtk DataFile Version 2.0
Unstructured Grid Example
ASCII
DATASET UNSTRUCTURED_GRID

POINTS 961 float
0.400000004 0.01999999956 0
0.3866666556 0.01999999956 0
0.3733333348 0.01999999956 0
0.3600000144 0.01999999956 0
0.346666664 0.01999999956 0
0.3333333432 0.01999999956 0
0.3199999928 0.01999999956 0
0.3066666724 0.01999999956 0
0.293333322 0.01999999956 0
0.2800000012 0.01999999956 0
0.2666666804 0.01999999956 0
0.25333333 0.01999999956 0
0.2399999948 0.01999999956 0
0.226666674 0.01999999956 0
0.2133333384 0.01999999956 0
0.2000000028 0.01999999956 0
0.1866666676 0.01999999956 0
0.173333332 0.01999999956 0
0.1599999964 0.01999999956 0
0.1466666608 0.01999999956 0
0.1333333404 0.01999999956 0
0.1199999972 0.01999999956 0
0.1066666692 0.01999999956 0
0.0933333336 0.01999999956 0
0.0799999984 0.01999999956 0
0.06666667 0.01999999956 0
0.0533333348 0.01999999956 0
0.03999999912 0.01999999956 0
0.02666666732 0.01999999956 0
0.01333333364 0.01999999956 0
0.0 0.01999999956 0
0.400000004 0.00666666684 0
0.3866666556 0.00666666684 0
0.3733333348 0.00666666684 0
0.3600000144 0.00666666684 0
0.346666664 0.00666666684 0
0.3333333432 0.00666666684 0
0.3199999928 0.00666666684 0
0.3066666724 0.00666666684 0
0.293333322 0.00666666684 0
0.2800000012 0.00666666684 0
0.2666666804 0.00666666684 0
0.25333333 0.00666666684 0
0.2399999948 0.00666666684 0
0.226666674 0.00666666684 0
0.2133333384 0.00666666684 0
0.2000000028 0.00666666684 0
0.1866666676 0.00666666684 0
0.173333332 0.00666666684 0
0.1599999964 0.00666666684 0
0.1466666608 0.00666666684 0
0.1333333404 0.00666666684 0
0.1199999972 0.00666666684 0
0.1066666692 0.00666666684 0
0.0933333336 0.00666666684 0
0.0799999984 0.00666666684 0
0.06666667 0.00666666684 0
0.0533333348 0.00666666684 0
0.03999999912 0.00666666684 0
0.02666666732 0.00666666684 0
0.01333333364 0.00666666684 0
0.0 0.00666666684 0
0.400000004 -0.00666666684 0
0.3866666556 -0.00666666684 0
0.3733333348 -0.00666666684 0
0.3600000144 -0.00666666684 0
0.346666664 -0.00666666684 0
0.3333333432 -0.00666666684 0
0.3199999928 -0.00666666684 0
0.3066666724 -0.00666666684 0
0.293333322 -0.00666666684 0
0.2800000012 -0.00666666684 0
0.2666666804 -0.00666666684 0
0.25333333 -0.00666666684 0
0.2399999948 -0.00666666684 0
0.226666674 -0.00666666684 0
0.2133333384 -0.00666666684 0
0.2000000028 -0.00666666684 0
0.1866666676 -0.00666666684 0
0.173333332 -0.00666666684 0
0.1599999964 -0.00666666684 0
0.1466666608 -0.00666666684 0
0.1333333404 -0.00666666684 0
0.1199999972 -0.00666666684 0
0.1066666692 -0.00666666684 0
0.0933333336 -0.00666666684 0
0.0799999984 -0.00666666684 0
0.06666667 -0.00666666684 0
0.0533333348 -0.00666666684 0
0.03999999912 -0.00666666684 0
0.02666666732 -0.00666666684 0
0.01333333364 -0.00666666684 0
0.0 -0.00666666684 0
0.400000004 -0.01999999956 0
0.3866666556 -0.01999999956 0
0.3733333348 -0.01999999956 0
0.3600000144 -0.01999999956 0
0.346666664 -0.01999999956 0
0.3333333432 -0.01999999956 0
0.3199999928 -0.01999999956 0
0.3066666724 -0.01999999956 0
0.293333322 -0.01999999956 0
0.2800000012 -0.01999999956 0
0.2666666804 -0.01999999956 0
0.25333333 -0.01999999956 0
0.2399999948 -0.01999999956 0
0.226666674 -0.01999999956 0
0.2133333384 -0.01999999956 0
0.2000000028 -0.01999999956 0
0.1866666676 -0.01999999956 0
0.173333332 -0.01999999956 0
0.1599999964 -0.01999999956 0
0.1466666608 -0.01999999956 0
0.1333333404 -0.01999999956 0
0.1199999972 -0.01999999956 0
0.1066666692 -0.01999999956 0
0.0933333336 -0.01999999956 0
0.0799999984 -0.01999999956 0
0.06666667 -0.01999999956 0
0.0533333348 -0.01999999956 0
0.03999999912 -0.01999999956 0
0.02666666732 -0.01999999956 0
0.01333333364 -0.01999999956 0
0.0 -0.01999999956 0
0.400000004 -0.03333333508 0
0.3866666556 -0.03333333508 0
0.3733333348 -0.03333333508 0
0.3600000144 -0.03333333508 0
0.346666664 -0.03333333508 0
0.3333333432 -0.03333333508 0
0.3199999928 -0.03333333508 0
0.3066666724 -0.03333333508 0
0.293333322 -0.03333333508 0
0.2800000012 -0.03333333508 0
0.2666666804 -0.03333333508 0
0.25333333 -0.03333333508 0
0.2399999948 -0.03333333508 0
0.226666674 -0.03333333508 0
0.2133333384 -0.03333333508 0
0.2000000028 -0.03333333508 0
0.1866666676 -0.03333333508 0
0.173333332 -0.03333333508 0
0.1599999964 -0.03333333508 0
0.1466666608 -0.03333333508 0
0.1333333404 -0.03333333508 0
0.1199999972 -0.03333333508 0
0.1066666692 -0.03333333508 0
0.0933333336 -0.03333333508 0
0.0799999984 -0.03333333508 0
0.06666667 -0.03333333508 0
0.0533333348 -0.03333333508 0
0.03999999912 -0.03333333508 0
0.02666666732 -0.03333333508 0
0.01333333364 -0.03333333508 0
0.0 -0.03333333508 0
0.400000004 -0.0466666668 0
0.3866666556 -0.0466666668 0
0.3733333348 -0.0466666668 0
0.3600000144 -0.0466666668 0
0.346666664 -0.0466666668 0
0.3333333432 -0.0466666668 0
0.3199999928 -0.0466666668 0
0.3066666724 -0.0466666668 0
0.293333322 -0.0466666668 0
0.2800000012 -0.0466666668 0
0.2666666804 -0.0466666668 0
0.25333333 -0.0466666668 0
0.2399999948 -0.0466666668 0
0.226666674 -0.0466666668 0
0.2133333384 -0.0466666668 0
0.2000000028 -0.0466666668 0
0.1866666676 -0.0466666668 0
0.173333332 -0.0466666668 0
0.1599999964 -0.0466666668 0
0.1466666608 -0.0466666668 0
0.1333333404 -0.0466666668 0
0.1199999972 -0.0466666668 0
0.1066666692 -0.0466666668 0
0.0933333336 -0.0466666668 0
0.0799999984 -0.0466666668 0
0.06666667 -0.0466666668 0
0.0533333348 -0.0466666668 0
0.03999999912 -0.0466666668 0
0.02666666732 -0.0466666668 0
0.01333333364 -0.0466666668 0
0.0 -0.0466666668 0
0.400000004 -0.0599999988 0
0.3866666556 -0.0599999988 0
0.3733333348 -0.0599999988 0
0.3600000144 -0.0599999988 0
0.346666664 -0.0599999988 0
0.3333333432 -0.0599999988 0
0.3199999928 -0.0599999988 0
0.3066666724 -0.0599999988 0
0.293333322 -0.0599999988 0
0.2800000012 -0.0599999988 0
0.2666666804 -0.0599999988 0
0.25333333 -0.0599999988 0
0.2399999948 -0.0599999988 0
0.226666674 -0.0599999988 0
0.2133333384 -0.0599999988 0
0.2000000028 -0.0599999988 0
0.1866666676 -0.0599999988 0
0.173333332 -0.0599999988 0
0.1599999964 -0.0599999988 0
0.1466666608 -0.0599999988 0
0.1333333404 -0.0599999988 0
0.1199999972 -0.0599999988 0
0.1066666692 -0.0599999988 0
0.0933333336 -0.0599999988 0
0.0799999984 -0.0599999988 0
0.06666667 -0.0599999988 0
0.0533333348 -0.0599999988 0
0.03999999912 -0.0599999988 0
0.02666666732 -0.0599999988 0
0.01333333364 -0.0599999988 0
0.0 -0.0599999988 0
0.400000004 -0.0733333304 0
0.3866666556 -0.0733333304 0
0.3733333348 -0.0733333304 0
0.3600000144 -0.0733333304 0
0.346666664 -0.0733333304 0
0.3333333432 -0.0733333304 0
0.3199999928 -0.0733333304 0
0.3066666724 -0.0733333304 0
0.293333322 -0.0733333304 0
0.2800000012 -0.0733333304 0
0.2666666804 -0.0733333304 0
0.25333333 -0.0733333304 0
0.2399999948 -0.0733333304 0
0.226666674 -0.0733333304 0
0.2133333384 -0.0733333304 0
0.2000000028 -0.0733333304 0
0.1866666676 -0.0733333304 0
0.173333332 -0.0733333304 0
0.1599999964 -0.0733333304 0
0.1466666608 -0.0733333304 0
0.1333333404 -0.0733333304 0
0.1199999972 -0.0733333304 0
0.1066666692 -0.0733333304 0
0.0933333336 -0.0733333304 0
0.0799999984 -0.0733333304 0
0.06666667 -0.0733333304 0
0.0533333348 -0.0733333304 0
0.03999999912 -0.0733333304 0
0.02666666732 -0.0733333304 0
0.01333333364 -0.0733333304 0
0.0 -0.0733333304 0
0.400000004 -0.086666666 0
0.3866666556 -0.086666666 0
0.3733333348 -0.086666666 0
0.3600000144 -0.086666666 0
0.346666664 -0.086666666 0
0.3333333432 -0.086666666 0
0.3199999928 -0.086666666 0
0.3066666724 -0.086666666 0
0.293333322 -0.086666666 0
0.2800000012 -0.086666666 0
0.2666666804 -0.086666666 0
0.25333333 -0.086666666 0
0.2399999948 -0.086666666 0
0.226666674 -0.086666666 0
0.2133333384 -0.086666666 0
0.2000000028 -0.086666666 0
0.1866666676 -0.086666666 0
0.173333332 -0.086666666 0
0.1599999964 -0.086666666 0
0.1466666608 -0.086666666 0
0.1333333404 -0.086666666 0
0.1199999972 -0.086666666 0
0.1066666692 -0.086666666 0
0.0933333336 -0.086666666 0
0.0799999984 -0.086666666 0
0.06666667 -0.086666666 0
0.0533333348 -0.086666666 0
0.03999999912 -0.086666666 0
0.02666666732 -0.086666666 0
0.01333333364 -0.086666666 0
0.0 -0.086666666 0
0.400000004 -0.1000000016 0
0.3866666556 -0.1000000016 0
0.3733333348 -0.1000000016 0
0.3600000144 -0.1000000016 0
0.346666664 -0.1000000016 0
0.3333333432 -0.1000000016 0
0.3199999928 -0.1000000016 0
0.3066666724 -0.1000000016 0
0.293333322 -0.1000000016 0
0.2800000012 -0.1000000016 0
0.2666666804 -0.1000000016 0
0.25333333 -0.1000000016 0
0.2399999948 -0.1000000016 0
0.226666674 -0.1000000016 0
0.2133333384 -0.1000000016 0
0.2000000028 -0.1000000016 0
0.1866666676 -0.1000000016 0
0.173333332 -0.1000000016 0
0.1599999964 -0.1000000016 0
0.1466666608 -0.1000000016 0
0.1333333404 -0.1000000016 0
0.1199999972 -0.1000000016 0
0.1066666692 -0.1000000016 0
0.0933333336 -0.1000000016 0
0.0799999984 -0.1000000016 0
0.06666667 -0.1000000016 0
0.0533333348 -0.1000000016 0
0.03999999912 -0.1000000016 0
0.02666666732 -0.1000000016 0
0.01333333364 -0.1000000016 0
0.0 -0.1000000016 0
0.400000004 -0.1133333372 0
0.3866666556 -0.1133333372 0
0.3733333348 -0.1133333372 0
0.3600000144 -0.1133333372 0
0.346666664 -0.1133333372 0
0.3333333432 -0.1133333372 0
0.3199999928 -0.1133333372 0
0.3066666724 -0.1133333372 0
0.293333322 -0.1133333372 0
0.2800000012 -0.1133333372 0
0.2666666804 -0.1133333372 0
0.25333333 -0.1133333372 0
0.2399999948 -0.1133333372 0
0.226666674 -0.1133333372 0
0.2133333384 -0.1133333372 0
0.2000000028 -0.1133333372 0
0.1866666676 -0.1133333372 0
0.173333332 -0.1133333372 0
0.1599999964 -0.1133333372 0
0.1466666608 -0.1133333372 0
0.1333333404 -0.1133333372 0
0.1199999972 -0.1133333372 0
0.1066666692 -0.1133333372 0
0.0933333336 -0.1133333372 0
0.0799999984 -0.1133333372 0
0.06666667 -0.1133333372 0
0.0533333348 -0.1133333372 0
0.03999999912 -0.1133333372 0
0.02666666732 -0.1133333372 0
0.01333333364 -0.1133333372 0
0.0 -0.1133333372 0
0.400000004 -0.1266666652 0
0.3866666556 -0.1266666652 0
0.3733333348 -0.1266666652 0
[...]
POINT_DATA 961
SCALARS Temp float 1
LOOKUP_TABLE default
0.7440250386534506
0.7737417144582825
0.7950676513855275
0.810573887667379
0.8219356174157324
0.8303015609568423
0.8364895372200247
0.8410881820145638
0.8445259289962552
0.8471166968147853
0.8490932291672592
0.8506302129353367
0.8518611453302071
0.8528914610912818
0.8538083272614494
0.854688413272693
0.8556050062072511
0.8566345515940138
0.8578635248877866
0.859396292557424
0.8613646856867638
0.8639406040373255
0.8673520823684252
0.871906117868585
0.878019316288249
0.8862613841433328
0.8974170922453364
0.9125769269210596
0.9332751700903167
0.9617385034504158
1.0014990166885243
0.7853030665060803
0.8144423543395123
0.8355392408465298
0.8509606043717947
0.8622833273404448
0.8706332642614368
0.8768164262453914
0.8814158292377745
0.8848569702131888
0.8874522396715689
0.8894335966107928
0.8909753586506854
0.8922108921986686
0.8932456289497663
0.8941668039051467
0.8950511962482689
0.8959722180537053
0.8970064391800622
0.8982404399586323
0.8997786446947903
0.9017528515588429
0.9043347529946644
0.9077518755538613
0.9123101524431714
0.9184241295337536
0.9266595894896159
0.9377937635152462
0.9529015533038568
0.9734847930607835
1.0016579319601895
1.040483564321737
2.717900442905562
2.722229649916958
2.7342952831088563
2.7454236546825963
2.7546261904510585
2.7619482897882857
2.7676816148201002
2.772141031679944
2.775605829317745
2.778307806697888
2.7804344966915218
2.782136678451034
2.783536519368496
2.7847351903045303
2.785819642787755
2.786868668906691
2.7879585372346383
2.789168520192689
2.790586611495449
2.7923157889460635
2.7944811722568574
2.7972383128767455
2.800782758743125
2.8053605180098735
2.8112777878123714
2.8189049595642186
2.828660556538627
2.840932377785109
2.8557801407971533
2.871874620017155
2.87765270564127
4.626410360986199
4.628772967952968
4.63457178906441
4.6418177964200815
4.6486883951123446
4.654645409189717
4.659601370932159
4.663639612732217
4.666897970016993
4.669521709225425
4.671645581014588
4.673388457617192
4.674853560214279
4.676131091616245
4.677301803600865
4.678440908984937
4.679622132138199
4.6809218382583415
4.682423274555363
4.684220934600215
4.686424952856285
4.68916522322135
4.692594339693939
4.696887523405215
4.702235159286406
4.708818504333304
4.716746728658759
4.725901326312697
4.7355617594701584
4.743295087657518
4.746445859224531
6.529280837082139
6.530538293200507
6.533936725914175
6.538538268187438
6.543438837227109
6.548043860232851
6.552108600171595
6.555575246481483
6.558477070453701
6.560886490962361
6.562888877061582
6.56457008634667
6.566011377220503
6.567288238724812
6.568471247271409
6.569627985562045
6.5708255092579275
6.572133043774498
6.573624706033074
6.5753820108851935
6.5774957732089
6.58006671482402
6.583203403592773
6.587015126013862
6.591594966744619
6.596984533699143
6.603104519564251
6.609626437940595
6.615755417062012
6.620283860809394
6.621959751634613
8.42874654553569
8.429512537012425
8.431632071386861
8.434666815956135
8.438109450548513
8.441555271631353
8.444757134031068
8.447603500587093
8.450068564078641
8.452174602565359
8.45396813355932
8.455506059214413
8.456848313422222
8.45805451551156
8.459182983043942
8.460291117422715
8.46143654266071
8.462678549719186
8.464079502032847
8.465705818747828
8.467628003478156
8.469918908925388
8.472648859390945
8.475875555444501
8.479625332615928
8.483861070983743
8.48843184886906
8.493006176611143
8.497042725026365
8.499863590083015
8.50088330283474
10.325918246305779
10.326406219140162
10.32778198230787
10.329815874609983
10.332220799395866
10.334734526967841
10.337166866276144
10.339406314784691
10.341404690965012
10.343156454397779
10.344681899568991
10.346015518176172
10.347198775386483
10.348276090408387
10.349292932899107
10.35029525536767
10.351329694370238
10.352444080872452
10.353687876421159
10.355112115838743
10.356768320898318
10.358705656868494
10.360965249916038
10.36357032613902
10.366510477760137
10.369719021125215
10.37304531967312
10.376234111078132
10.37893438696652
10.380762261610098
10.38141081396469
12.22128515167102
12.221599588619911
12.222495921938442
12.223848805037873
12.225492673463595
12.227263907713734
12.229030484351046
12.230703549232844
12.23223497420024
12.233608290594539
12.234828770071825
12.23591526580601
12.236894450041508
12.237797182022106
12.238656458865007
12.239506445923354
12.240382156419761
12.241319391458006
12.242354597507298
12.243524270172642
12.24486345970794
12.246402835103078
12.248163608949117
12.250149688990478
12.252336639188893
12.254658283462527
12.256994546405295
12.259168068896635
12.26095964560892
12.262147728301075
12.262564690408135
14.11508986578417
14.11528409835947
14.115841852022106
14.116695371445823
14.117752070676303
14.118915718937362
14.120103398415814
14.121254405745166
14.122331668235072
14.123318406477285
14.124213085708412
14.125024527357695
14.125768057324324
14.126462843507891
14.127130228768188
14.127792793141612
14.12847387273889
14.129197261065782
14.12998684105764
14.130865877093733
14.131855659665945
14.132973164212643
14.134227353326727
14.135613937266777
14.13710875139683
14.138660912608394
14.14018832595968
14.14157949008121
14.14270536837283
14.143441972210972
14.143698629759465
16.007450244798804
16.007552038164906
16.00784599115583
16.00830072952798
16.008872448778085
16.009514147111044
16.01018356893912
16.010848019276033
16.01148589413851
16.012085792660905
16.01264447324432
16.013164578900046
16.013652679208903
16.014117815238844
16.014570513442308
16.01502216513682
16.015484643402264
16.01597001327862
16.016490200274706
16.017056472264773
16.01767857739348
16.01836338112384
16.01911285532017
16.01992142065844
16.02077286269214
16.021637549636594
16.02247122926352
16.023217025856653
16.023811861375613
16.02419703027632
16.024330518617397
17.898422443725337
17.89844434954034
17.89850875207626
17.89861194727125
17.898748485988474
17.898912027077195
17.899096179971817
17.899295157194963
17.899504173308543
17.899719591065693
17.89993889241418
17.900160538125764
17.90038378183295
17.900608480631142
17.900834915675684
17.901063628734004
17.901295273708882
17.90153047075592
17.901769653308943
17.902012896861336
17.902259720462673
17.902508860009558
17.90275801647776
17.90300361465756
17.90324061643595
17.903462477713376
17.903661347098783
17.903828591839677
17.903955671438585
17.90403525798527
17.90406237532445
18.00392629279953
18.003944478824216
18.003998143743605
18.004084748461775
18.004200489274478
18.004340819457607
18.004500993334556
18.004676522492677
18.00486349569252
18.00505874090311
18.005259864959868
18.005465199192585
18.00567369266812
18.005884784688178
18.006098268970554
18.00631415859541
18.006532555798028
18.006753520292225
18.006976932458997
18.007202346626467
18.00742883200955
18.007654806382924
18.00787786995807
18.00809467206386
18.00830084147864
18.00849103740048
18.008659170403646
18.00879882484048
18.008903870894663
18.008969187641075
18.00899136007068
18.109319332994946
18.10933474368471
18.109380349387273
18.109454356245113
18.10955403716951
18.109676060368212
18.109816847081298
18.109972889501492
18.110140995873145
18.110318437205493
18.110503011816064
18.11069303680891
18.110887291632988
18.111084935725547
18.111285409344333
18.11148832675037
18.111693368131128
18.111900167758165
18.112108198734717
18.11231665376764
18.112524323385
18.11272947910667
18.112929769243134
18.113122153937894
18.11330289818781
18.11346765779346
18.113611680612163
18.11373013066964
18.113818515983592
18.113873163888407
18.11389166063165
18.214606821869673
18.214620114161807
18.214659538784503
18.214723792553613
18.214810869881916
18.214918275178807
18.215043262347628
18.21518305706297
18.215335040686497
18.215496872394283
18.2156665573736
18.21584246048715
18.21602328023178
18.21620799776102
18.21639580662991
18.216586031223613
18.21677804088534
18.216971159330967
18.21716457202865
18.217357233380433
18.217547776977504
18.21773443678987
18.217914985460627
18.2180867103087
18.218246436790604
18.218390620512483
18.218515516104898
18.218617420849164
18.21869297509107
18.21873948050583
18.218755184898953
18.319792686879325
18.319804331896048
18.31983893130313
18.319895512859617
18.31997256450697
18.320068174889013
18.320180196496903
18.320306402101686
18.320444621612907
18.32059283957657
18.32074925784275
18.320912318321128
18.32108069453227
18.32125326178641
18.321429048868975
18.32160717766908
18.32178679749894
18.321967014633245
18.32214682082778
18.32232502376104
18.322500183247246
18.322670560412018
18.322834084086356
18.322988350065565
18.323130657004914
18.323258091752308
18.323367665509537
18.32345649548723
18.323522017557597
18.32356220317466
18.323575748375813
18.42487987573417
18.424890221105553
18.424921001373548
18.424971472051453
18.425040464608458
18.425126481366085
18.425227808497734
18.42534262704781
18.42546911465775
18.42560552173485
18.425750225486706
18.425901754981204
18.426058792444667
18.426220157437104
18.426384774794347
18.426551631349763
18.42671972752184
18.426888024542777
18.427055391366196
18.42722055447834
18.427382054326237
18.4275382145007
18.42768712618443
18.42782665977751
18.427954503772614
18.42806823888077
18.42816544565479
18.42824383980097
18.428301424223037
18.428336639409014
18.428348491614308
18.52648551323486
18.52649481405636
18.52652251637276
18.526568035418308
18.526630445857233
18.52670854706554
18.52680094265798
18.526906120017888
18.527022526165524
18.527148626647847
18.527282950675726
18.527424115260384
18.527570831623297
18.52772189851834
18.52787618203459
18.528032585713767
18.528190016290853
18.52834734570845
18.528503373260257
18.528656790906467
18.528806155000478
18.528949869467137
18.52908618155454
18.529213199383406
18.529328929219222
18.52943133775306
18.529518436415785
18.529588382495067
18.529639589053147
18.529670830893327
18.52968133323368
18.621203115215923
18.621211559523662
18.621236731911118
18.621278161661582
18.62133509850012
18.621406558267026
18.621491379761057
18.62158828228531
18.621695922603912
18.621812940324116
18.62193799505227
18.622069788292947
18.622207072318503
18.62234864941484
18.62249336024396
18.62264006423874
18.622787616581242
18.622934842128167
18.6230805097323
18.623223309600817
18.62336183634557
18.6234945817745
18.623619937525632
18.62373621487114
18.623841678462085
18.62393459778876
18.62401331309374
18.624076311388542
18.624122306850406
18.62415031665665
18.624159723454397
18.709001822037106
18.70900955630612
18.70903262718538
18.70907064660834
18.709122992051228
18.709188839005616
18.709267202250064
18.709356977950307
18.709456986826787
18.709566009204615
18.709682815486516
18.709806185485263
18.70993491829363
18.71006783534017
18.710203774882384
18.710341580157387
18.710480085068717
18.71061809744176
18.71075438281388
18.71088765093132
18.711016547031406
18.711139651130836
18.711255484709184
18.711362530784548
18.71145926360227
18.711544190880215
18.71161590548055
18.711673143033615
18.71171484148216
18.711740196189204
18.711748704717397
18.789854624102794
18.789861764859523
18.78988307614985
18.789918230609903
18.789966700120004
18.790027779263085
18.790100615786017
18.790184241782278
18.790277606813596
18.790379605163846
18.790489100930273
18.790604944922638
18.79072598476639
18.790851070390932
18.790979052884737
18.79110877842016
18.791239080556505
18.791368770641544
18.791496628802545
18.791621397243887
18.79174177742079
18.791856433644604
18.791964002032795
18.7920631098638
18.79215240135826
18.792230572375757
18.79229641119116
18.792348842632464
18.79238697277993
18.792410129638814
18.79241789578844
18.863738145464552
18.863744787353742
18.86376461757111
18.863797353875796
18.863842538709463
18.863899556425178
18.86396765617111
18.864045975314724
18.86413356524305
18.864229412785498
18.86433246107524
18.86444162433229
18.864555797824554
18.864673864892254
18.864794698886246
18.86491716134028
18.865040099217087
18.86516234068184
18.86528269146783
18.8653999331503
18.865512824473885
18.865620107770162
18.86572051907301
18.865812806323664
18.865895751682487
18.865968200185794
18.866029092242197
18.866077497864204
18.866112650721576
18.86613397864955
18.86614112786741
18.930632398918448
18.93063862040331
18.930657201045193
18.930687892499922
18.930730290479723
18.930783847634792
18.930847891082095
18.93092164029079
18.931004227542054
18.931094715016943
18.931192112384817
18.93129538983316
18.93140348772485
18.93151532457683
18.931629801161126
18.931745801766883
18.931862195084385
18.93197783395135
18.93209155566468
18.932202183838875
18.932308532617817
18.932409414878332
18.932503652846346
18.932590095033202
18.932667635604243
18.932735238275
18.93279196254025
18.932836990612593
18.932869653791702
18.93288945574734
18.932896090811
18.990520912067602
18.99052677952052
18.990544306864436
18.9905732714371
18.9906133094957
18.990663926040142
18.99072450853356
18.990794340819768
18.990872619684655
18.99095846873543
18.991050953484415
18.991149092968364
18.991251869054267
18.991358234994642
18.991467121032116
18.99157743788412
18.991688080267153
18.991797929537512
18.991905856856555
18.992010727592177
18.992111407500836
18.992206772026247
18.992295717029215
18.99237717449853
18.992450129493385
18.99251364032622
18.99256686006113
18.992609058072492
18.992639640838142
18.992658170046504
18.99266437668231
19.04338967778183
19.043395248472464
19.04341189222047
19.043439405934674
19.04347745689759
19.043525590426206
19.043583240871772
19.043649742688594
19.043724344149933
19.0438062188621
19.04389447894738
19.043988185552024
19.044086357809633
19.04418798172987
19.044292016836785
19.044397401234104
19.04450305701911
19.044607895002354
19.04471081990539
19.044810736539052
19.044906557306156
19.044997212138433
19.045081659127572
19.0451588991322
19.045227990760946
19.045288067683416
19.045338356567406
19.04537819466532
19.045407046546337
19.04542451847519
19.04543036949194
19.089227831563537
19.08923315586881
19.08924906555904
19.089275372482682
19.089311767694024
19.089357827580418
19.089413022915245
19.089476727882264
19.08954823171816
19.08962674849194
19.089711428857328
19.089801369699018
19.089895622789427
19.089993203856583
19.090093099923443
19.090194275482908
19.09029567924489
19.090396250327196
19.090494924879238
19.090590643480965
19.09068235951193
19.09076904943153
19.09084972320812
19.090923437976006
19.090989311463314
19.09104653710099
19.091094399290927
19.091132288063314
19.091159712848516
19.0911763141633
19.091181872534307
19.128026387949948
19.12803151102574
19.128046820895424
19.128072140759976
19.128107179797126
19.128151538203205
19.128204714856576
19.12826611488089
19.128335059785215
19.128410795981488
19.128492505471403
19.128579314835783
19.128670303630972
19.128764513541036
19.128860956184358
19.128958620056302
19.129056478201527
19.129153495429232
19.129248635920295
19.129340871449397
19.12942919030788
19.129512607743926
19.129590176154863
19.129660997956385
19.129724237798317
19.12977913600522
19.12982502185992
19.129861326113193
19.12988759260546
19.129903488012662
19.129908809224734
19.159778677709816
19.159783640773405
19.159798473499215
19.15982300759003
19.159856965834386
19.15989996638737
19.15995152945244
19.160011083812133
19.16007797589365
19.160151477381255
19.160230795123514
19.16031507963232
19.160403433268808
19.16049491942437
19.16058857063206
19.160683396030095
19.16077838966322
19.160872538396713
19.160964830187826
19.1610542628505
19.161139853321288
19.16122064815274
19.16129573347606
19.161364247241412
19.161425390511848
19.161478439663618
19.161522758216982
19.161557807792057
19.161583158186858
19.16159849573945
19.161603629609626
19.184479665121714
19.184484506463363
19.184498976118977
19.18452291195734
19.18455604666106
19.184598011486386
19.184648342268844
19.184706485242796
19.184771805359283
19.184843593267757
19.184921074670374
19.185003418468227
19.185089744785657
19.18517913415175
19.185270635804414
19.185363275496737
19.185456064213394
19.185548006546973
19.185638109404405
19.18572539111853
19.185808890918125
19.185887679419587
19.18596086839272
19.18602762252337
19.186087170033158
19.186138813988276
19.186181943099527
19.186216041585443
19.186240698171883
19.18625561349241
19.186260605610617
19.20212559101773
19.202130346820397
19.202144561279074
19.20216807644424
19.202200631720256
19.202241867288198
19.202291329671354
19.202348477092713
19.20241268730235
19.202483264145727
19.202559446550094
19.20264041643337
19.20272530661468
19.20281320998525
19.202903187927983
19.20299427833719
19.203085504593904
19.203175884231058
19.203264437909585
19.203350198739525
19.2034322218648
19.203509594932726
19.203581447710512
19.20364696351384
19.203705389367443
19.203756046714403
19.203798341529932
19.203831773462138
19.203855944121955
19.20387056385315
19.20387545675841
19.21271409639222
19.21271880141733
19.21273286436616
19.212756129713664
19.212788340766053
19.212829142894453
19.212878088852776
19.212934643874952
19.212998193225136
19.21306804853157
19.213143456563007
19.21322360700068
19.21330764028134
19.213394656757835
19.213483725179245
19.213573890826925
19.213664184630353
19.21375363199011
19.213841261899645
19.213926116377863
19.214007260110733
19.214083790899718
19.21415484918578
19.214219629280333
19.214277389259163
19.214327461326516
19.214369261536255
19.214402298521374
19.214426181381103
19.21444062609406
19.214445460264038
19.216243738520326
19.216248426709065
19.216262439418326
19.216285621917574
19.21631771879241
19.21635837711737
19.216407151693673
19.216463510062813
19.21652683996666
19.216596455605863
19.216671606347685
19.216751484453354
19.216835232898806
19.216921954531017
19.217010720567128
19.21710057876711
19.217190562594322
19.217279700088284
19.217367023032665
19.217451576422423
19.217532428122734
19.217608679308825
19.217679473958977
19.217744010019945
19.217801549213398
19.217851427287446
19.217893063610006
19.217925969764632
19.217949757307295
19.217964144063867
19.21796895878537
