# vtk DataFile Version 2.0
Unstructured Grid Example
ASCII
DATASET UNSTRUCTURED_GRID

POINTS 961 float
0.400000004 0.01999999956 0
0.3866666556 0.01999999956 0
0.3733333348 0.01999999956 0
0.3600000144 0.01999999956 0
0.346666664 0.01999999956 0
0.3333333432 0.01999999956 0
0.3199999928 0.01999999956 0
0.3066666724 0.01999999956 0
0.293333322 0.01999999956 0
0.2800000012 0.01999999956 0
0.2666666804 0.01999999956 0
0.25333333 0.01999999956 0
0.2399999948 0.01999999956 0
0.226666674 0.01999999956 0
0.2133333384 0.01999999956 0
0.2000000028 0.01999999956 0
0.1866666676 0.01999999956 0
0.173333332 0.01999999956 0
0.1599999964 0.01999999956 0
0.1466666608 0.01999999956 0
0.1333333404 0.01999999956 0
0.1199999972 0.01999999956 0
0.1066666692 0.01999999956 0
0.0933333336 0.01999999956 0
0.0799999984 0.01999999956 0
0.06666667 0.01999999956 0
0.0533333348 0.01999999956 0
0.03999999912 0.01999999956 0
0.02666666732 0.01999999956 0
0.01333333364 0.01999999956 0
0.0 0.01999999956 0
0.400000004 0.00666666684 0
0.3866666556 0.00666666684 0
0.3733333348 0.00666666684 0
0.3600000144 0.00666666684 0
0.346666664 0.00666666684 0
0.3333333432 0.00666666684 0
0.3199999928 0.00666666684 0
0.3066666724 0.00666666684 0
0.293333322 0.00666666684 0
0.2800000012 0.00666666684 0
0.2666666804 0.00666666684 0
0.25333333 0.00666666684 0
0.2399999948 0.00666666684 0
0.226666674 0.00666666684 0
0.2133333384 0.00666666684 0
0.2000000028 0.00666666684 0
0.1866666676 0.00666666684 0
0.173333332 0.00666666684 0
0.1599999964 0.00666666684 0
0.1466666608 0.00666666684 0
0.1333333404 0.00666666684 0
0.1199999972 0.00666666684 0
0.1066666692 0.00666666684 0
0.0933333336 0.00666666684 0
0.0799999984 0.00666666684 0
0.06666667 0.00666666684 0
0.0533333348 0.00666666684 0
0.03999999912 0.00666666684 0
0.02666666732 0.00666666684 0
0.01333333364 0.00666666684 0
0.0 0.00666666684 0
0.400000004 -0.00666666684 0
0.3866666556 -0.00666666684 0
0.3733333348 -0.00666666684 0
0.3600000144 -0.00666666684 0
0.346666664 -0.00666666684 0
0.3333333432 -0.00666666684 0
0.3199999928 -0.00666666684 0
0.3066666724 -0.00666666684 0
0.293333322 -0.00666666684 0
0.2800000012 -0.00666666684 0
0.2666666804 -0.00666666684 0
0.25333333 -0.00666666684 0
0.2399999948 -0.00666666684 0
0.226666674 -0.00666666684 0
0.2133333384 -0.00666666684 0
0.2000000028 -0.00666666684 0
0.1866666676 -0.00666666684 0
0.173333332 -0.00666666684 0
0.1599999964 -0.00666666684 0
0.1466666608 -0.00666666684 0
0.1333333404 -0.00666666684 0
0.1199999972 -0.00666666684 0
0.1066666692 -0.00666666684 0
0.0933333336 -0.00666666684 0
0.0799999984 -0.00666666684 0
0.06666667 -0.00666666684 0
0.0533333348 -0.00666666684 0
0.03999999912 -0.00666666684 0
0.02666666732 -0.00666666684 0
0.01333333364 -0.00666666684 0
0.0 -0.00666666684 0
0.400000004 -0.01999999956 0
0.3866666556 -0.01999999956 0
0.3733333348 -0.01999999956 0
0.3600000144 -0.01999999956 0
0.346666664 -0.01999999956 0
0.3333333432 -0.01999999956 0
0.3199999928 -0.01999999956 0
0.3066666724 -0.01999999956 0
0.293333322 -0.01999999956 0
0.2800000012 -0.01999999956 0
0.2666666804 -0.01999999956 0
0.25333333 -0.01999999956 0
0.2399999948 -0.01999999956 0
0.226666674 -0.01999999956 0
0.2133333384 -0.01999999956 0
0.2000000028 -0.01999999956 0
0.1866666676 -0.01999999956 0
0.173333332 -0.01999999956 0
0.1599999964 -0.01999999956 0
0.1466666608 -0.01999999956 0
0.1333333404 -0.01999999956 0
0.1199999972 -0.01999999956 0
0.1066666692 -0.01999999956 0
0.0933333336 -0.01999999956 0
0.0799999984 -0.01999999956 0
0.06666667 -0.01999999956 0
0.0533333348 -0.01999999956 0
0.03999999912 -0.01999999956 0
0.02666666732 -0.01999999956 0
0.01333333364 -0.01999999956 0
0.0 -0.01999999956 0
0.400000004 -0.03333333508 0
0.3866666556 -0.03333333508 0
0.3733333348 -0.03333333508 0
0.3600000144 -0.03333333508 0
0.346666664 -0.03333333508 0
0.3333333432 -0.03333333508 0
0.3199999928 -0.03333333508 0
0.3066666724 -0.03333333508 0
0.293333322 -0.03333333508 0
0.2800000012 -0.03333333508 0
0.2666666804 -0.03333333508 0
0.25333333 -0.03333333508 0
0.2399999948 -0.03333333508 0
0.226666674 -0.03333333508 0
0.2133333384 -0.03333333508 0
0.2000000028 -0.03333333508 0
0.1866666676 -0.03333333508 0
0.173333332 -0.03333333508 0
0.1599999964 -0.03333333508 0
0.1466666608 -0.03333333508 0
0.1333333404 -0.03333333508 0
0.1199999972 -0.03333333508 0
0.1066666692 -0.03333333508 0
0.0933333336 -0.03333333508 0
0.0799999984 -0.03333333508 0
0.06666667 -0.03333333508 0
0.0533333348 -0.03333333508 0
0.03999999912 -0.03333333508 0
0.02666666732 -0.03333333508 0
0.01333333364 -0.03333333508 0
0.0 -0.03333333508 0
0.400000004 -0.0466666668 0
0.3866666556 -0.0466666668 0
0.3733333348 -0.0466666668 0
0.3600000144 -0.0466666668 0
0.346666664 -0.0466666668 0
0.3333333432 -0.0466666668 0
0.3199999928 -0.0466666668 0
0.3066666724 -0.0466666668 0
0.293333322 -0.0466666668 0
0.2800000012 -0.0466666668 0
0.2666666804 -0.0466666668 0
0.25333333 -0.0466666668 0
0.2399999948 -0.0466666668 0
0.226666674 -0.0466666668 0
0.2133333384 -0.0466666668 0
0.2000000028 -0.0466666668 0
0.1866666676 -0.0466666668 0
0.173333332 -0.0466666668 0
0.1599999964 -0.0466666668 0
0.1466666608 -0.0466666668 0
0.1333333404 -0.0466666668 0
0.1199999972 -0.0466666668 0
0.1066666692 -0.0466666668 0
0.0933333336 -0.0466666668 0
0.0799999984 -0.0466666668 0
0.06666667 -0.0466666668 0
0.0533333348 -0.0466666668 0
0.03999999912 -0.0466666668 0
0.02666666732 -0.0466666668 0
0.01333333364 -0.0466666668 0
0.0 -0.0466666668 0
0.400000004 -0.0599999988 0
0.3866666556 -0.0599999988 0
0.3733333348 -0.0599999988 0
0.3600000144 -0.0599999988 0
0.346666664 -0.0599999988 0
0.3333333432 -0.0599999988 0
0.3199999928 -0.0599999988 0
0.3066666724 -0.0599999988 0
0.293333322 -0.0599999988 0
0.2800000012 -0.0599999988 0
0.2666666804 -0.0599999988 0
0.25333333 -0.0599999988 0
0.2399999948 -0.0599999988 0
0.226666674 -0.0599999988 0
0.2133333384 -0.0599999988 0
0.2000000028 -0.0599999988 0
0.1866666676 -0.0599999988 0
0.173333332 -0.0599999988 0
0.1599999964 -0.0599999988 0
0.1466666608 -0.0599999988 0
0.1333333404 -0.0599999988 0
0.1199999972 -0.0599999988 0
0.1066666692 -0.0599999988 0
0.0933333336 -0.0599999988 0
0.0799999984 -0.0599999988 0
0.06666667 -0.0599999988 0
0.0533333348 -0.0599999988 0
0.03999999912 -0.0599999988 0
0.02666666732 -0.0599999988 0
0.01333333364 -0.0599999988 0
0.0 -0.0599999988 0
0.400000004 -0.0733333304 0
0.3866666556 -0.0733333304 0
0.3733333348 -0.0733333304 0
0.3600000144 -0.0733333304 0
0.346666664 -0.0733333304 0
0.3333333432 -0.0733333304 0
0.3199999928 -0.0733333304 0
0.3066666724 -0.0733333304 0
0.293333322 -0.0733333304 0
0.2800000012 -0.0733333304 0
0.2666666804 -0.0733333304 0
0.25333333 -0.0733333304 0
0.2399999948 -0.0733333304 0
0.226666674 -0.0733333304 0
0.2133333384 -0.0733333304 0
0.2000000028 -0.0733333304 0
0.1866666676 -0.0733333304 0
0.173333332 -0.0733333304 0
0.1599999964 -0.0733333304 0
0.1466666608 -0.0733333304 0
0.1333333404 -0.0733333304 0
0.1199999972 -0.0733333304 0
0.1066666692 -0.0733333304 0
0.0933333336 -0.0733333304 0
0.0799999984 -0.0733333304 0
0.06666667 -0.0733333304 0
0.0533333348 -0.0733333304 0
0.03999999912 -0.0733333304 0
0.02666666732 -0.0733333304 0
0.01333333364 -0.0733333304 0
0.0 -0.0733333304 0
0.400000004 -0.086666666 0
0.3866666556 -0.086666666 0
0.3733333348 -0.086666666 0
0.3600000144 -0.086666666 0
0.346666664 -0.086666666 0
0.3333333432 -0.086666666 0
0.3199999928 -0.086666666 0
0.3066666724 -0.086666666 0
0.293333322 -0.086666666 0
0.2800000012 -0.086666666 0
0.2666666804 -0.086666666 0
0.25333333 -0.086666666 0
0.2399999948 -0.086666666 0
0.226666674 -0.086666666 0
0.2133333384 -0.086666666 0
0.2000000028 -0.086666666 0
0.1866666676 -0.086666666 0
0.173333332 -0.086666666 0
0.1599999964 -0.086666666 0
0.1466666608 -0.086666666 0
0.1333333404 -0.086666666 0
0.1199999972 -0.086666666 0
0.1066666692 -0.086666666 0
0.0933333336 -0.086666666 0
0.0799999984 -0.086666666 0
0.06666667 -0.086666666 0
0.0533333348 -0.086666666 0
0.03999999912 -0.086666666 0
0.02666666732 -0.086666666 0
0.01333333364 -0.086666666 0
0.0 -0.086666666 0
0.400000004 -0.1000000016 0
0.3866666556 -0.1000000016 0
0.3733333348 -0.1000000016 0
0.3600000144 -0.1000000016 0
0.346666664 -0.1000000016 0
0.3333333432 -0.1000000016 0
0.3199999928 -0.1000000016 0
0.3066666724 -0.1000000016 0
0.293333322 -0.1000000016 0
0.2800000012 -0.1000000016 0
0.2666666804 -0.1000000016 0
0.25333333 -0.1000000016 0
0.2399999948 -0.1000000016 0
0.226666674 -0.1000000016 0
0.2133333384 -0.1000000016 0
0.2000000028 -0.1000000016 0
0.1866666676 -0.1000000016 0
0.173333332 -0.1000000016 0
0.1599999964 -0.1000000016 0
0.1466666608 -0.1000000016 0
0.1333333404 -0.1000000016 0
0.1199999972 -0.1000000016 0
0.1066666692 -0.1000000016 0
0.0933333336 -0.1000000016 0
0.0799999984 -0.1000000016 0
0.06666667 -0.1000000016 0
0.0533333348 -0.1000000016 0
0.03999999912 -0.1000000016 0
0.02666666732 -0.1000000016 0
0.01333333364 -0.1000000016 0
0.0 -0.1000000016 0
0.400000004 -0.1133333372 0
0.3866666556 -0.1133333372 0
0.3733333348 -0.1133333372 0
0.3600000144 -0.1133333372 0
0.346666664 -0.1133333372 0
0.3333333432 -0.1133333372 0
0.3199999928 -0.1133333372 0
0.3066666724 -0.1133333372 0
0.293333322 -0.1133333372 0
0.2800000012 -0.1133333372 0
0.2666666804 -0.1133333372 0
0.25333333 -0.1133333372 0
0.2399999948 -0.1133333372 0
0.226666674 -0.1133333372 0
0.2133333384 -0.1133333372 0
0.2000000028 -0.1133333372 0
0.1866666676 -0.1133333372 0
0.173333332 -0.1133333372 0
0.1599999964 -0.1133333372 0
0.1466666608 -0.1133333372 0
0.1333333404 -0.1133333372 0
0.1199999972 -0.1133333372 0
0.1066666692 -0.1133333372 0
0.0933333336 -0.1133333372 0
0.0799999984 -0.1133333372 0
0.06666667 -0.1133333372 0
0.0533333348 -0.1133333372 0
0.03999999912 -0.1133333372 0
0.02666666732 -0.1133333372 0
0.01333333364 -0.1133333372 0
0.0 -0.1133333372 0
0.400000004 -0.1266666652 0
0.3866666556 -0.1266666652 0
0.3733333348 -0.1266666652 0
[...]
POINT_DATA 961
SCALARS Temp float 1
LOOKUP_TABLE default
0.7051743318641263
0.7333392081114553
0.7535513251751531
0.7682475157975122
0.7790155352604797
0.7869441427630812
0.7928084669645004
0.7971664156900421
0.800424056831913
0.8028789211044431
0.8047516019587937
0.8062076670467458
0.8073736448913349
0.8083494667439716
0.8092177499376204
0.8100511622115717
0.810919165350631
0.811894214333279
0.8130582698798237
0.8145102489324605
0.8163750982393818
0.8188157401813325
0.8220483001411952
0.8263637420064475
0.8321569142713743
0.8399677716363538
0.8505401037454801
0.8649074541121419
0.8845239918097784
0.9115001374994692
0.9491835496526682
0.7442981767470493
0.771915825835906
0.7919108490472918
0.8065265936819886
0.8172576353507877
0.8251710616279135
0.8310308100508713
0.8353894622169595
0.8386503028885417
0.8411094146496942
0.8429866474647292
0.8444472192543143
0.8456175348263684
0.8465975228132259
0.8474698652300919
0.8483073341138676
0.8491795099947841
0.8501589659698207
0.8513277624399727
0.8527848714429485
0.8546552088089795
0.8571015007018488
0.8603393911085524
0.8646588357706421
0.8704527311513763
0.8782573133006613
0.8888092263102938
0.9031272432959909
0.9226347808335373
0.9493358877256142
0.9861332701971655
2.5760401858021345
2.580143202975061
2.5915784225641207
2.602125091074132
2.6108462829271306
2.617785050320771
2.62321784522675
2.6274431092540507
2.6307255629231516
2.6332849157633897
2.6352989223981993
2.6369105029882975
2.6382354602136475
2.639369696875682
2.6403956391523535
2.6413879799443247
2.6424190203308684
2.643563908118398
2.644906056539007
2.646543079834502
2.6485935771683713
2.651204989488902
2.65456266487682
2.658899776061701
2.6645065416537035
2.671734023205423
2.6809789032548412
2.692608750311478
2.7066801965513347
2.7219334942784092
2.7274095920637675
4.384954115036957
4.387193171783064
4.392688655891295
4.399555417358927
4.406066053842308
4.411710515467713
4.416405925758391
4.4202312894356535
4.423317268327014
4.4258015677102485
4.427811926882843
4.429461036691095
4.4308467550597115
4.43205460208575
4.433161140928975
4.434237685389491
4.435354138630345
4.436582906545919
4.438002917196157
4.439703756998222
4.4417898355815355
4.444384289135413
4.4476317675655554
4.4516983655341775
4.456764549412377
4.463002135063562
4.470514618431028
4.479189714576067
4.488344557193887
4.495673327335117
4.498659311526289
6.18852556475068
6.189717122568021
6.192937391238067
6.197297490418414
6.201940566684925
6.206303119268586
6.210153218574458
6.213436102811512
6.21618333785441
6.218463594848019
6.220357820690248
6.2219474270420125
6.223309468123243
6.224515531373497
6.225632549142313
6.226724617072426
6.227855331556839
6.229090345313506
6.230499946619074
6.232161434490895
6.234160921164405
6.236593907094289
6.239563327648794
6.243172797990659
6.247510576619078
6.252616133310594
6.258414338058415
6.26459389722851
6.270401492503357
6.274692636416246
6.276280732227063
7.9888733795718725
7.98959907636344
7.991607049000727
7.994481866833111
7.997742721687077
8.001006069855066
8.004037703644032
8.00673194643399
8.009064378539236
8.011056157984077
8.01275141950392
8.014204142923916
8.01547118388959
8.016609101854797
8.017673223971773
8.018718010092574
8.019798131520833
8.020969839397855
8.022292296309411
8.023828507690634
8.025645348659861
8.027811918899303
8.030394919706962
8.033449085748908
8.03699942261353
8.04101079254288
8.045340197806361
8.04967350158518
8.053497684340984
8.056170279466919
8.05713641804642
9.787051155102006
9.78751328805078
9.788816139611464
9.79074205502675
9.793018951797071
9.795398323527165
9.797699947449852
9.799818186309473
9.80170742260681
9.8033624581022
9.804802584633864
9.806060553652117
9.807175729192764
9.808190277705343
9.80914736324401
9.810090608885403
9.811064286705449
9.812113800806783
9.813286100037187
9.814629623031685
9.816193268035478
9.818023697397628
9.820159951376091
9.822624101775812
9.825406339656485
9.828443515638611
9.831592908102465
9.834612629475211
9.8371700410041
9.838901335963522
9.839515642348308
11.583523365225975
11.583820957906378
11.58466921666039
11.585949355568196
11.587504480610294
11.589179550181642
11.590849477082129
11.592430096740955
11.593875850716337
11.595171193075846
11.596321188433688
11.597343778552847
11.59826432013828
11.599112141610028
11.599918600187683
11.600716162096704
11.601538098041633
11.602418425494987
11.603391772772857
11.60449281311699
11.605754847485787
11.607207021215327
11.608869513358854
11.610746097489297
11.612813678819164
11.615009597063956
11.617220101620909
11.619277143162433
11.620973003755424
11.622097735543662
11.622492485211168
13.378520717642756
13.37870431304555
13.379231463436023
13.380037968545288
13.381036105012388
13.382134705408195
13.383255229816339
13.38434020187307
13.385354550221283
13.386282444739015
13.387122510644833
13.387883194520404
13.388579112889857
13.389228527775026
13.389851765733237
13.390470328077878
13.391106433817697
13.391782735531725
13.392521969576018
13.393346284047746
13.394275953261156
13.395327157875588
13.396508479433635
13.397815933621771
13.39922669288222
13.400692599498761
13.402135906140789
13.403450986138322
13.404515583688843
13.405212216535686
13.405454967360571
15.172155645418021
15.172251554764625
15.17252845875777
15.172956640421383
15.173494613918391
15.1740978749805
15.174726428968347
15.17534935327357
15.17594624693579
15.176506388402993
15.17702679737994
15.177510078012476
15.177962562101635
15.1783929288049
15.178811268865504
15.179228495343192
15.179655979230748
15.18010527354063
15.180587797873514
15.181114346134946
15.18169426827108
15.182334177292752
15.183036042374125
15.18379466893067
15.184594774840265
15.185408352594491
15.186193528141615
15.186896452703651
15.187457387725237
15.187820726604427
15.187946669732893
16.964482057038843
16.96450217194893
16.964561277509386
16.964655884214146
16.964780862423872
16.964930250536284
16.96509805297608
16.96527885805219
16.96546821515394
16.965662772486546
16.9658602484227
16.966059297377296
16.966259332398128
16.966460344259044
16.966662730066616
16.96686713699758
16.967074320071895
16.967285002428966
16.96749972886931
16.967718702113814
16.967941593245637
16.96816732539534
16.968393833894336
16.968617836242952
16.968834654040325
16.969038171047345
16.9692210205273
16.96937508287563
16.96949231287254
16.969565800919806
16.969590852288007
17.064483168664243
17.064499750000948
17.06454865465345
17.064627497492143
17.06473270879421
17.06486002825056
17.06500502001039
17.065163504498784
17.06533186069028
17.065507178890464
17.06568729714326
17.065870748599913
17.066056659164442
17.066244625231697
17.066434583584105
17.06662668202207
17.066821154432134
17.067018194507074
17.067217824586198
17.067419755112827
17.06762323243867
17.067826879716097
17.06802853820473
17.06822513952666
17.068412638516758
17.068586060412336
17.068739709282404
17.068867567531456
17.06896387524999
17.06902381493237
17.069044171680254
17.164380937974897
17.16439487380476
17.164436094952592
17.16450292308812
17.164592809674748
17.164702646992364
17.16482910657004
17.16496893991942
17.16511920988603
17.165277428893017
17.165441618908577
17.165610302246396
17.165782446872488
17.16595738689835
17.16613472718236
17.166314240689566
17.166495764498098
17.166679092281846
17.16686386354722
17.16704944911015
17.167234834195394
17.16741850620431
17.16759835467745
17.167771608306303
17.167934827169976
17.168083983051723
17.16821464917234
17.168322306521794
17.168402748590886
17.16845253128666
17.16846938914993
17.264180379075412
17.264192284803514
17.264227580905306
17.26428505481361
17.264362842996867
17.264458631909037
17.264569884340315
17.264694049485477
17.2648287362784
17.264971828309143
17.26512154721591
17.26527646447702
17.265435475491515
17.265597749765057
17.265762662867097
17.26592971767106
17.266098461352968
17.266268397969124
17.2664388990901
17.266609114255132
17.266777884383856
17.26694366552453
17.26710446904701
17.267257837425504
17.26740086528639
17.267530285430684
17.26764262784701
17.267734449735006
17.267802619459797
17.267844617595188
17.26785880642022
17.363885259525954
17.363895574210048
17.363926208020374
17.36397626300527
17.364044344969468
17.36412869628445
17.364227349849024
17.364338276728454
17.36445951484985
17.364589260543134
17.364725926641547
17.364868162842335
17.365014846409846
17.365165052349465
17.36531800609782
17.36547302479357
17.365629453343224
17.3657865960041
17.365943646983645
17.366099622869136
17.366253300573064
17.366403167535672
17.36654738849009
17.366683803220244
17.36680995933948
17.366923191929786
17.36702075150402
17.367099975256895
17.36715848781006
17.367194406179426
17.367206518459103
17.463498432866356
17.463507478205393
17.463534380013705
17.463578457405276
17.463638643767524
17.463713576313264
17.46380170248247
17.46390138450991
17.464010994772895
17.464128987075124
17.4642539465005
17.464384611898016
17.464519875758068
17.464658767572644
17.4648004218556
17.464944035536174
17.465088820303713
17.465233950870264
17.46537851291129
17.465521453765767
17.465661539455102
17.46579732376026
17.46592713202271
17.466049070539388
17.466161062097374
17.466260914924195
17.46634642354395
17.466415496056154
17.466466297394987
17.46649739120548
17.466507860862247
17.559829978360877
17.55983799359139
17.559861858294003
17.559901044248875
17.559954717467
17.560021799655374
17.560101042859888
17.560191104156438
17.560290616438255
17.560398243278364
17.5605127202823
17.560632876633857
17.560757639747298
17.560886027212426
17.56101712597334
17.561150062335432
17.56128396763057
17.561417940401988
17.56155100869199
17.56168209534306
17.561809989424802
17.561933328481782
17.562050592967296
17.562160121163533
17.56226014312426
17.562348838326724
17.562424414372682
17.56248520180522
17.56252975739588
17.562556963884685
17.562566113527573
17.649666792879128
17.649673959246062
17.649695315299347
17.64973044210068
17.64977867354661
17.649839139232327
17.649910817563757
17.649992589583697
17.650083291786117
17.650181758135233
17.65028685379053
17.650397494473076
17.650512653385416
17.650631358692713
17.650752680737874
17.650875711712423
17.650999541886204
17.651123232996706
17.65124579199243
17.651366147661683
17.651483132706833
17.651595475016638
17.65170179854846
17.651800640302756
17.65189048085548
17.651969791688106
17.652037096390007
17.652091041636766
17.6521304724554
17.652154503372927
17.652162577104818
17.732977361533834
17.73298382096997
17.733003083709125
17.73303481023523
17.73307845732577
17.733133308388414
17.733198511785794
17.73327311999605
17.733356129313268
17.733446512036473
17.73354324380271
17.733645320466827
17.733751765911208
17.733861633066468
17.733973996867036
17.734087941202397
17.734202543321473
17.734316855987014
17.73442989011412
17.734540599980942
17.73464787302746
17.734750527205822
17.734847315632457
17.73493694374435
17.7350180959258
17.735089474043683
17.73514984509879
17.735198094726886
17.735233282661348
17.73525469420731
17.735261882142115
17.8097324020918
17.8097382681802
17.809755771060548
17.809784629736686
17.80982439209428
17.809874456679875
17.809934100753765
17.810002509079062
17.81007880406042
17.810162070509975
17.81025137782734
17.810345794524242
17.810444396202573
17.810546268815536
17.81065050569382
17.810756199905626
17.81086243485986
17.810968273162946
17.811072746010396
17.811174844771017
17.811273516299053
17.811367664303905
17.811456156088575
17.811537838954088
17.81161156306711
17.811676212785628
17.811730743935094
17.811774224487113
17.81180587591653
17.811825110966847
17.811831564034215
17.87990482078607
17.87991018636491
17.879926202731934
17.87995263254421
17.8799890920313
17.880035066857513
17.880089932969376
17.880152978009885
17.880223424481763
17.88030044895636
17.880383200197606
17.88047081163726
17.880562409170775
17.88065711581615
17.880754051605138
17.880852329911605
17.88095105267494
17.881049304284918
17.88114614600275
17.88124061219688
17.881331709528535
17.881418420922078
17.881499713352373
17.881574553097778
17.88164192526947
17.881700859362844
17.881750458642507
17.881789931395154
17.88181862216501
17.88183603986068
17.88184188013119
17.943469696054763
17.94347463858357
17.943489397093778
17.94351376715632
17.943547416792615
17.94358989820529
17.94364066352954
17.9436990809788
17.943764452914166
17.94383603091758
17.94391303077217
17.943994643236593
17.94408004151109
17.94416838674896
17.94425882994674
17.94435051115007
17.944442558067653
17.944534083665154
17.944624184268957
17.944711939141822
17.944796412345823
17.944876658347894
17.944951730232354
17.945020693696932
17.94508264374778
17.945136725694795
17.945182158557856
17.94521825937482
17.94524446712562
17.945260363969247
17.945265691986556
18.00040466066125
18.000409246067612
18.000422941780037
18.000445568400714
18.00047683352159
18.00051634054657
18.000563600815443
18.00061804597181
18.000679042309496
18.000745902781027
18.000817899567362
18.000894273481432
18.00097424106408
18.00105700059668
18.00114173537193
18.00122761496146
18.00131379628202
18.00139942388311
18.001483630704925
18.001565540013942
18.001644269083624
18.001718935787558
18.001788666876347
18.001852610764054
18.001909951884834
18.001959928129978
18.002001849736494
18.002035118467354
18.002059246225752
18.002073871367124
18.002078771441685
18.05068920066878
18.050693486157474
18.050706288658102
18.050727447918646
18.050756701923916
18.05079369365971
18.050837980642232
18.050889044571857
18.050946302958057
18.05100911886584
18.051076811652273
18.05114866528718
18.05122393509274
18.051301854032847
18.051381636925214
18.05146248316852
18.051543579555773
18.051624102489864
18.05170322062433
18.051780098439195
18.051853901130826
18.051923801766197
18.051988989428747
18.05204868091696
18.052102133210248
18.052148658150497
18.05218763792599
18.052218540461944
18.052240934164324
18.052254500681247
18.052259044784716
18.094305617296726
18.094309653428784
18.0943217128611
18.094341650007717
18.094369226222348
18.094404115101845
18.09444591015708
18.094494132516793
18.094548240566745
18.09460763803462
18.09467168334391
18.09473969709288
18.094810968476466
18.094884761712233
18.09496032088413
18.095036873688652
18.09511363547489
18.095189812818063
18.095264607474927
18.09533722107944
18.095406860817512
18.095472746869483
18.095534120332907
18.095590253985286
18.095640463247403
18.095684118749396
18.095720659259776
18.095749604278904
18.09577056595856
18.095783259297267
18.095787509967906
18.131238150477703
18.131241982747998
18.131253434401646
18.131272371032594
18.13129857186717
18.131331734032877
18.13137147890114
18.13141735839628
18.131468863193486
18.13152542959328
18.13158644784331
18.13165126897393
18.131719210950997
18.131789565154012
18.13186160163579
18.13193457356895
18.13200772213214
18.132080281024507
18.132151481322385
18.13222055692458
18.132286750721747
18.132349322159733
18.132407554911506
18.13246076686399
18.132508319908712
18.13254963090295
18.13258418269707
18.132611534674812
18.1326313326198
18.1326433170598
18.13264732962178
18.161473713212462
18.161477383266366
18.161488351125513
18.161506490779388
18.16153159491327
18.161563378450957
18.161601483958286
18.161645486965266
18.161694903131888
18.16174919425319
18.161807775824204
18.16187002339427
18.16193527850215
18.16200285515948
18.162072045377418
18.162142124085005
18.162212354586952
18.162281993716178
18.162350297295507
18.162416526072477
18.162479952189656
18.162539866773738
18.162595587368514
18.162646467302142
18.162691904584896
18.16273135167579
18.16276432511629
18.162790414583856
18.162809291283025
18.16282071496873
18.162824539254924
18.185001539551397
18.185005086152515
18.185015685726068
18.185033218364097
18.18505748655727
18.18508821824011
18.185125071546896
18.18516763945345
18.185215456223762
18.185268002808396
18.185324713871807
18.18538498379938
18.185448172465748
18.185513611701563
18.185580610986218
18.185648462674344
18.185716447828156
18.185783841789622
18.18584992003558
18.185913964422365
18.185975269831033
18.186033151735927
18.186086953434746
18.18613605494502
18.186179881248332
18.186217911197257
18.186249686159375
18.186274818024316
18.186292996563303
18.18630399553357
18.186307677262064
18.201813108252416
18.201816568075586
18.201826908722165
18.201844014429945
18.201867694362278
18.20189768533131
18.201933656131935
18.20197521174127
18.202021899292948
18.202073213077455
18.202128601211108
18.202187471409157
18.202249196636508
18.202313121552553
18.20237856830148
18.202444841929296
18.202511236448224
18.20257704066954
18.202641544301045
18.202704044376837
18.202763851998334
18.20282029986832
18.202872749368165
18.202920599124923
18.20296329280992
18.20300032746738
18.20303126149881
18.203055721977893
18.203073411330703
18.20308411283751
18.203087694742436
18.211902478778207
18.211905887081105
18.211916073983048
18.211932926128192
18.211956256557585
18.211985807251573
18.212021253226144
18.212062206483203
18.212108221717642
18.212158801091846
18.21221340069986
18.21227143620542
18.21233228842293
18.212395309745276
18.212459829984738
18.212525161893037
18.2125906073511
18.21265546334373
18.212719028187102
18.212780608056374
18.212839523772704
18.21289511830942
18.21294676377467
18.21299386978376
18.21303589099873
18.213072335123712
18.21310277051186
18.213126833085813
18.21314423263226
18.213154757962393
18.213158280753724
18.21526599345971
18.215269384678944
18.21527952059744
18.215296288648375
18.21531950314498
18.21534890776473
18.215384179568865
18.215424932872413
18.215470724864478
18.215521060309978
18.215575397946868
18.215633156080166
18.215693718139786
18.215756439102094
18.21582065134634
18.21588567020726
18.215950800204432
18.21601534106164
18.216078593975556
18.216139868173435
18.216198487713957
18.21625379898265
18.216305177642862
18.21635203694347
18.216393835173527
18.216430083548868
18.216460353696135
18.21648428444511
18.216501587998287
18.21651205498085
18.216515558195823
