# vtk DataFile Version 2.0
Unstructured Grid Example
ASCII
DATASET UNSTRUCTURED_GRID

POINTS 961 float
0.400000004 0.01999999956 0
0.3866666556 0.01999999956 0
0.3733333348 0.01999999956 0
0.3600000144 0.01999999956 0
0.346666664 0.01999999956 0
0.3333333432 0.01999999956 0
0.3199999928 0.01999999956 0
0.3066666724 0.01999999956 0
0.293333322 0.01999999956 0
0.2800000012 0.01999999956 0
0.2666666804 0.01999999956 0
0.25333333 0.01999999956 0
0.2399999948 0.01999999956 0
0.226666674 0.01999999956 0
0.2133333384 0.01999999956 0
0.2000000028 0.01999999956 0
0.1866666676 0.01999999956 0
0.173333332 0.01999999956 0
0.1599999964 0.01999999956 0
0.1466666608 0.01999999956 0
0.1333333404 0.01999999956 0
0.1199999972 0.01999999956 0
0.1066666692 0.01999999956 0
0.0933333336 0.01999999956 0
0.0799999984 0.01999999956 0
0.06666667 0.01999999956 0
0.0533333348 0.01999999956 0
0.03999999912 0.01999999956 0
0.02666666732 0.01999999956 0
0.01333333364 0.01999999956 0
0.0 0.01999999956 0
0.400000004 0.00666666684 0
0.3866666556 0.00666666684 0
0.3733333348 0.00666666684 0
0.3600000144 0.00666666684 0
0.346666664 0.00666666684 0
0.3333333432 0.00666666684 0
0.3199999928 0.00666666684 0
0.3066666724 0.00666666684 0
0.293333322 0.00666666684 0
0.2800000012 0.00666666684 0
0.2666666804 0.00666666684 0
0.25333333 0.00666666684 0
0.2399999948 0.00666666684 0
0.226666674 0.00666666684 0
0.2133333384 0.00666666684 0
0.2000000028 0.00666666684 0
0.1866666676 0.00666666684 0
0.173333332 0.00666666684 0
0.1599999964 0.00666666684 0
0.1466666608 0.00666666684 0
0.1333333404 0.00666666684 0
0.1199999972 0.00666666684 0
0.1066666692 0.00666666684 0
0.0933333336 0.00666666684 0
0.0799999984 0.00666666684 0
0.06666667 0.00666666684 0
0.0533333348 0.00666666684 0
0.03999999912 0.00666666684 0
0.02666666732 0.00666666684 0
0.01333333364 0.00666666684 0
0.0 0.00666666684 0
0.400000004 -0.00666666684 0
0.3866666556 -0.00666666684 0
0.3733333348 -0.00666666684 0
0.3600000144 -0.00666666684 0
0.346666664 -0.00666666684 0
0.3333333432 -0.00666666684 0
0.3199999928 -0.00666666684 0
0.3066666724 -0.00666666684 0
0.293333322 -0.00666666684 0
0.2800000012 -0.00666666684 0
0.2666666804 -0.00666666684 0
0.25333333 -0.00666666684 0
0.2399999948 -0.00666666684 0
0.226666674 -0.00666666684 0
0.2133333384 -0.00666666684 0
0.2000000028 -0.00666666684 0
0.1866666676 -0.00666666684 0
0.173333332 -0.00666666684 0
0.1599999964 -0.00666666684 0
0.1466666608 -0.00666666684 0
0.1333333404 -0.00666666684 0
0.1199999972 -0.00666666684 0
0.1066666692 -0.00666666684 0
0.0933333336 -0.00666666684 0
0.0799999984 -0.00666666684 0
0.06666667 -0.00666666684 0
0.0533333348 -0.00666666684 0
0.03999999912 -0.00666666684 0
0.02666666732 -0.00666666684 0
0.01333333364 -0.00666666684 0
0.0 -0.00666666684 0
0.400000004 -0.01999999956 0
0.3866666556 -0.01999999956 0
0.3733333348 -0.01999999956 0
0.3600000144 -0.01999999956 0
0.346666664 -0.01999999956 0
0.3333333432 -0.01999999956 0
0.3199999928 -0.01999999956 0
0.3066666724 -0.01999999956 0
0.293333322 -0.01999999956 0
0.2800000012 -0.01999999956 0
0.2666666804 -0.01999999956 0
0.25333333 -0.01999999956 0
0.2399999948 -0.01999999956 0
0.226666674 -0.01999999956 0
0.2133333384 -0.01999999956 0
0.2000000028 -0.01999999956 0
0.1866666676 -0.01999999956 0
0.173333332 -0.01999999956 0
0.1599999964 -0.01999999956 0
0.1466666608 -0.01999999956 0
0.1333333404 -0.01999999956 0
0.1199999972 -0.01999999956 0
0.1066666692 -0.01999999956 0
0.0933333336 -0.01999999956 0
0.0799999984 -0.01999999956 0
0.06666667 -0.01999999956 0
0.0533333348 -0.01999999956 0
0.03999999912 -0.01999999956 0
0.02666666732 -0.01999999956 0
0.01333333364 -0.01999999956 0
0.0 -0.01999999956 0
0.400000004 -0.03333333508 0
0.3866666556 -0.03333333508 0
0.3733333348 -0.03333333508 0
0.3600000144 -0.03333333508 0
0.346666664 -0.03333333508 0
0.3333333432 -0.03333333508 0
0.3199999928 -0.03333333508 0
0.3066666724 -0.03333333508 0
0.293333322 -0.03333333508 0
0.2800000012 -0.03333333508 0
0.2666666804 -0.03333333508 0
0.25333333 -0.03333333508 0
0.2399999948 -0.03333333508 0
0.226666674 -0.03333333508 0
0.2133333384 -0.03333333508 0
0.2000000028 -0.03333333508 0
0.1866666676 -0.03333333508 0
0.173333332 -0.03333333508 0
0.1599999964 -0.03333333508 0
0.1466666608 -0.03333333508 0
0.1333333404 -0.03333333508 0
0.1199999972 -0.03333333508 0
0.1066666692 -0.03333333508 0
0.0933333336 -0.03333333508 0
0.0799999984 -0.03333333508 0
0.06666667 -0.03333333508 0
0.0533333348 -0.03333333508 0
0.03999999912 -0.03333333508 0
0.02666666732 -0.03333333508 0
0.01333333364 -0.03333333508 0
0.0 -0.03333333508 0
0.400000004 -0.0466666668 0
0.3866666556 -0.0466666668 0
0.3733333348 -0.0466666668 0
0.3600000144 -0.0466666668 0
0.346666664 -0.0466666668 0
0.3333333432 -0.0466666668 0
0.3199999928 -0.0466666668 0
0.3066666724 -0.0466666668 0
0.293333322 -0.0466666668 0
0.2800000012 -0.0466666668 0
0.2666666804 -0.0466666668 0
0.25333333 -0.0466666668 0
0.2399999948 -0.0466666668 0
0.226666674 -0.0466666668 0
0.2133333384 -0.0466666668 0
0.2000000028 -0.0466666668 0
0.1866666676 -0.0466666668 0
0.173333332 -0.0466666668 0
0.1599999964 -0.0466666668 0
0.1466666608 -0.0466666668 0
0.1333333404 -0.0466666668 0
0.1199999972 -0.0466666668 0
0.1066666692 -0.0466666668 0
0.0933333336 -0.0466666668 0
0.0799999984 -0.0466666668 0
0.06666667 -0.0466666668 0
0.0533333348 -0.0466666668 0
0.03999999912 -0.0466666668 0
0.02666666732 -0.0466666668 0
0.01333333364 -0.0466666668 0
0.0 -0.0466666668 0
0.400000004 -0.0599999988 0
0.3866666556 -0.0599999988 0
0.3733333348 -0.0599999988 0
0.3600000144 -0.0599999988 0
0.346666664 -0.0599999988 0
0.3333333432 -0.0599999988 0
0.3199999928 -0.0599999988 0
0.3066666724 -0.0599999988 0
0.293333322 -0.0599999988 0
0.2800000012 -0.0599999988 0
0.2666666804 -0.0599999988 0
0.25333333 -0.0599999988 0
0.2399999948 -0.0599999988 0
0.226666674 -0.0599999988 0
0.2133333384 -0.0599999988 0
0.2000000028 -0.0599999988 0
0.1866666676 -0.0599999988 0
0.173333332 -0.0599999988 0
0.1599999964 -0.0599999988 0
0.1466666608 -0.0599999988 0
0.1333333404 -0.0599999988 0
0.1199999972 -0.0599999988 0
0.1066666692 -0.0599999988 0
0.0933333336 -0.0599999988 0
0.0799999984 -0.0599999988 0
0.06666667 -0.0599999988 0
0.0533333348 -0.0599999988 0
0.03999999912 -0.0599999988 0
0.02666666732 -0.0599999988 0
0.01333333364 -0.0599999988 0
0.0 -0.0599999988 0
0.400000004 -0.0733333304 0
0.3866666556 -0.0733333304 0
0.3733333348 -0.0733333304 0
0.3600000144 -0.0733333304 0
0.346666664 -0.0733333304 0
0.3333333432 -0.0733333304 0
0.3199999928 -0.0733333304 0
0.3066666724 -0.0733333304 0
0.293333322 -0.0733333304 0
0.2800000012 -0.0733333304 0
0.2666666804 -0.0733333304 0
0.25333333 -0.0733333304 0
0.2399999948 -0.0733333304 0
0.226666674 -0.0733333304 0
0.2133333384 -0.0733333304 0
0.2000000028 -0.0733333304 0
0.1866666676 -0.0733333304 0
0.173333332 -0.0733333304 0
0.1599999964 -0.0733333304 0
0.1466666608 -0.0733333304 0
0.1333333404 -0.0733333304 0
0.1199999972 -0.0733333304 0
0.1066666692 -0.0733333304 0
0.0933333336 -0.0733333304 0
0.0799999984 -0.0733333304 0
0.06666667 -0.0733333304 0
0.0533333348 -0.0733333304 0
0.03999999912 -0.0733333304 0
0.02666666732 -0.0733333304 0
0.01333333364 -0.0733333304 0
0.0 -0.0733333304 0
0.400000004 -0.086666666 0
0.3866666556 -0.086666666 0
0.3733333348 -0.086666666 0
0.3600000144 -0.086666666 0
0.346666664 -0.086666666 0
0.3333333432 -0.086666666 0
0.3199999928 -0.086666666 0
0.3066666724 -0.086666666 0
0.293333322 -0.086666666 0
0.2800000012 -0.086666666 0
0.2666666804 -0.086666666 0
0.25333333 -0.086666666 0
0.2399999948 -0.086666666 0
0.226666674 -0.086666666 0
0.2133333384 -0.086666666 0
0.2000000028 -0.086666666 0
0.1866666676 -0.086666666 0
0.173333332 -0.086666666 0
0.1599999964 -0.086666666 0
0.1466666608 -0.086666666 0
0.1333333404 -0.086666666 0
0.1199999972 -0.086666666 0
0.1066666692 -0.086666666 0
0.0933333336 -0.086666666 0
0.0799999984 -0.086666666 0
0.06666667 -0.086666666 0
0.0533333348 -0.086666666 0
0.03999999912 -0.086666666 0
0.02666666732 -0.086666666 0
0.01333333364 -0.086666666 0
0.0 -0.086666666 0
0.400000004 -0.1000000016 0
0.3866666556 -0.1000000016 0
0.3733333348 -0.1000000016 0
0.3600000144 -0.1000000016 0
0.346666664 -0.1000000016 0
0.3333333432 -0.1000000016 0
0.3199999928 -0.1000000016 0
0.3066666724 -0.1000000016 0
0.293333322 -0.1000000016 0
0.2800000012 -0.1000000016 0
0.2666666804 -0.1000000016 0
0.25333333 -0.1000000016 0
0.2399999948 -0.1000000016 0
0.226666674 -0.1000000016 0
0.2133333384 -0.1000000016 0
0.2000000028 -0.1000000016 0
0.1866666676 -0.1000000016 0
0.173333332 -0.1000000016 0
0.1599999964 -0.1000000016 0
0.1466666608 -0.1000000016 0
0.1333333404 -0.1000000016 0
0.1199999972 -0.1000000016 0
0.1066666692 -0.1000000016 0
0.0933333336 -0.1000000016 0
0.0799999984 -0.1000000016 0
0.06666667 -0.1000000016 0
0.0533333348 -0.1000000016 0
0.03999999912 -0.1000000016 0
0.02666666732 -0.1000000016 0
0.01333333364 -0.1000000016 0
0.0 -0.1000000016 0
0.400000004 -0.1133333372 0
0.3866666556 -0.1133333372 0
0.3733333348 -0.1133333372 0
0.3600000144 -0.1133333372 0
0.346666664 -0.1133333372 0
0.3333333432 -0.1133333372 0
0.3199999928 -0.1133333372 0
0.3066666724 -0.1133333372 0
0.293333322 -0.1133333372 0
0.2800000012 -0.1133333372 0
0.2666666804 -0.1133333372 0
0.25333333 -0.1133333372 0
0.2399999948 -0.1133333372 0
0.226666674 -0.1133333372 0
0.2133333384 -0.1133333372 0
0.2000000028 -0.1133333372 0
0.1866666676 -0.1133333372 0
0.173333332 -0.1133333372 0
0.1599999964 -0.1133333372 0
0.1466666608 -0.1133333372 0
0.1333333404 -0.1133333372 0
0.1199999972 -0.1133333372 0
0.1066666692 -0.1133333372 0
0.0933333336 -0.1133333372 0
0.0799999984 -0.1133333372 0
0.06666667 -0.1133333372 0
0.0533333348 -0.1133333372 0
0.03999999912 -0.1133333372 0
0.02666666732 -0.1133333372 0
0.01333333364 -0.1133333372 0
0.0 -0.1133333372 0
0.400000004 -0.1266666652 0
0.3866666556 -0.1266666652 0
0.3733333348 -0.1266666652 0
[...]
POINT_DATA 961
SCALARS Temp float 1
LOOKUP_TABLE default
0.7386078019676947
0.7681080662322051
0.789278602818207
0.8046717583964438
0.8159505508708402
0.8242553494092559
0.8303980261270458
0.8349629354944893
0.838375394229797
0.8409470365739535
0.8429089120884818
0.8444344357847335
0.8456561326492393
0.846678669363047
0.8475885778071901
0.8484619685840755
0.8493715944540071
0.8503933434779967
0.851613060430739
0.8531343506212605
0.8550880837730086
0.8576449063260227
0.861031190843622
0.8655516973669872
0.8716199966682978
0.8798016462109196
0.8908757032034503
0.9059247168503748
0.926471804580111
0.9547274489029609
0.9941980365237464
0.7795860283238452
0.8085131158713825
0.8294562687196732
0.8447651684904178
0.8560052362645736
0.8642941419738074
0.8704320359263026
0.8749976937112802
0.8784135168192577
0.8809896225433869
0.8829562815371933
0.8844865423182294
0.8857128001023766
0.8867397186304031
0.8876538973298123
0.8885315558392719
0.8894455710860333
0.8904719546409431
0.8916966554776176
0.8932233364073784
0.8951828345678751
0.8977455906811348
0.9011374728963626
0.9056621851185165
0.9117312533456668
0.9199063398798991
0.9309590173650266
0.9459563640282852
0.9663892862434527
0.9943568508902352
1.0328993830757935
2.6981478154615033
2.702445448753497
2.714423081145769
2.725470189828487
2.734605414267261
2.7418738355880192
2.747565001683702
2.75199149328881
2.7554305714782528
2.7581123521561426
2.7602230068553593
2.7619122206755216
2.763301275121707
2.76449060796641
2.765566541136474
2.7666072964817503
2.7676885906346724
2.7688891220902114
2.7702962469836665
2.7720121962580073
2.7741611813656983
2.7768976237740115
2.7804156501883814
2.7849594802972337
2.7908330850739596
2.7984041635284145
2.808088198282074
2.8202701755061925
2.8350093965242342
2.8509863509942837
2.856722245096692
4.592798439780907
4.595143781015489
4.600900193311175
4.608093139701977
4.614913306639529
4.620826447873019
4.625745742679028
4.629753925773265
4.632987837245458
4.635591693576802
4.637699271750461
4.639428585831756
4.640882112795647
4.642149406079585
4.643310636952476
4.644440478080254
4.645612124496723
4.646901392758629
4.6483909311977
4.650174552455814
4.652361596015397
4.655081016794098
4.658484304529403
4.6627454115652505
4.668053344266574
4.674588048808959
4.682457911720025
4.691545305414237
4.701134961508034
4.708811692793642
4.711939419857507
6.481852087226629
6.483100310461576
6.486473769519506
6.491041432413903
6.495905808118103
6.500476663283978
6.504511053504446
6.507951599788052
6.510831341737974
6.513222181514218
6.5152088772613075
6.5168766722850116
6.51830624440739
6.51957254430605
6.520745645972949
6.521892651608785
6.5230801402506176
6.524376844850408
6.52585635413349
6.527599600715465
6.529696749325708
6.532247799323438
6.5353605389148415
6.539143469832187
6.543689010407354
6.549038478046796
6.555113157143222
6.561586970260062
6.5676708547262574
6.572166031031625
6.573829618398272
8.367527635507283
8.3682879571444
8.37039178314054
8.373403977746445
8.376820922809731
8.3802408715733
8.383418489659903
8.386243064148244
8.388688988453701
8.390778391713347
8.392557466542733
8.394082715093056
8.39541364965845
8.39660947066751
8.39772808658386
8.398826496613218
8.39996192105721
8.401193235018999
8.40258236358323
8.40419525780159
8.40610192317981
8.408374696909412
8.411083405955019
8.414285345340506
8.418006673533501
8.42221055601474
8.426747185956717
8.431287504476806
8.435294141860531
8.438094147033802
8.439106326600228
10.250928217244933
10.251412527902312
10.252777948153451
10.254796494056524
10.257183167304504
10.25967765784381
10.262091171596158
10.264313031546067
10.266295421859013
10.268032858420169
10.269545504865047
10.270867619530678
10.272040384216231
10.273107913883726
10.274115366788367
10.275108380871565
10.27613327331994
10.277237547048681
10.278470323539786
10.279882285811992
10.28152459989358
10.283446091985645
10.28568760723052
10.288272220554179
10.29118961751347
10.294373617262568
10.29767469711324
10.300839470051784
10.303519499159064
10.305333707206337
10.30597741706859
12.13253992438903
12.132851944924756
12.133741372780696
12.13508377911325
12.136714813130451
12.138472057569267
12.140224463532963
12.141883839153156
12.143402423786984
12.144763887367583
12.145973483239423
12.147049948609569
12.148019783899239
12.14891364691629
12.14976431845323
12.150605739512654
12.151472693045479
12.152400744181854
12.153426098539313
12.1545850101335
12.15591229759665
12.15743842948185
12.159184485987705
12.161154367556906
12.163323836276476
12.165627217091256
12.167945326920695
12.170102114602031
12.171879985392678
12.173059015727615
12.173472807080518
14.012604014190835
14.012796686652143
14.013349943384494
14.014196527702929
14.015244536430401
14.016398451211446
14.017575972533203
14.0187168561472
14.01978431870769
14.02076172447488
14.0216475731843
14.022450646975368
14.02318618649634
14.0238732475536
14.024533045952078
14.025188026283558
14.025861384036634
14.026576768812822
14.027357918762313
14.028227957484404
14.029208048315486
14.030315069966967
14.031557945476642
14.032932440663876
14.034414589636965
14.035953900858157
14.037468896264834
14.038848903197081
14.039965838679972
14.040696627603317
14.040951265087855
15.891237878662562
15.891338764836405
15.891630081355668
15.892080688081023
15.8926471087656
15.893282696635863
15.89394551982468
15.894603140506554
15.895234133883887
15.895827206551484
15.896379167232645
15.896892668423154
15.897374262334205
15.897832956072595
15.898279232396995
15.89872443339761
15.899180379824152
15.899659083046826
15.90017241563008
15.900731596658176
15.901346335588945
15.902023478895991
15.902765013523956
15.9035654283442
15.904408652430371
15.90526529283338
15.906091439958931
15.906830649680124
15.907420317396143
15.90780217548518
15.907934522370581
17.768497629405477
17.768519188242436
17.768582561463504
17.76868407808422
17.768818338741955
17.76897906244386
17.76915992285291
17.76935519587401
17.769560155434856
17.76977121835006
17.769985915202987
17.770202750689194
17.770421018678988
17.77064061380013
17.770861852954162
17.771085312673485
17.771311681295035
17.771541613720927
17.77177557913374
17.772013690601707
17.77225550760878
17.772499810575876
17.772744350567585
17.772985609383035
17.773218613870824
17.77343689282967
17.77363267396042
17.773797405708773
17.773922624287525
17.774001065661786
17.77402779628055
17.873236831773823
17.87325469565732
17.873307402721643
17.873392438526697
17.87350603726456
17.873643699450277
17.87380073185095
17.873972700215297
17.87415574658709
17.874346749935356
17.874543365187286
17.874743968940233
17.87494755314891
17.87515359814749
17.875361937427165
17.875572623174936
17.87578579657744
17.87600155667776
17.876219824129667
17.876440195116263
17.876661783029
17.876883052923986
17.877101656243333
17.877314298058064
17.877516667574803
17.87770348840043
17.877868737591005
17.87800606472083
17.878109399249904
17.8781736681358
17.87819548764896
17.977866632713848
17.977881737185427
17.97792643090227
17.97799893936493
17.97809656575612
17.978216016976198
17.978353758596107
17.978506330296273
17.97867058891038
17.978843853841504
17.979023970792483
17.97920930298773
17.979398674802276
17.97959128959132
17.97978663084258
17.979984355736427
17.98018418740822
17.9803858034842
17.98058872122659
17.980792178732713
17.980995013609185
17.981195546553664
17.981391477536775
17.981579820897835
17.981756898074423
17.981918422584474
17.982059699509307
17.98217594698512
17.982262720681227
17.982316385481834
17.982334551749574
18.082392260683324
18.082405255817736
18.08244379443386
18.082506589329086
18.082591660259755
18.082696544692755
18.082818535376926
18.082954900831943
18.083103067647485
18.083260741486427
18.083425974432068
18.08359717822482
18.08377309805958
18.083952761552695
18.084135408583123
18.08432040990119
18.08450718141864
18.084695093831527
18.084883380216866
18.085071043433093
18.085256766582766
18.085438834320215
18.08561507120517
18.085782817444972
18.085938951831324
18.086079982727966
18.08620221540165
18.08630199360718
18.086375997578372
18.08642155979075
18.086436947555242
18.186817627716305
18.18682897906156
18.186862702160333
18.18691783860828
18.18699289853585
18.18708600000057
18.187195030756097
18.187317803370526
18.18745219080103
18.187596222938907
18.187748148454475
18.187906457046175
18.18806987068866
18.188237313584494
18.188407863769093
18.188580692747408
18.18875499980856
18.18892994160708
18.189104560724168
18.189277716138005
18.18944801943452
18.189613783875956
18.189772990631038
18.189923287583568
18.190062024595825
18.190186337849337
18.190293284686653
18.19038002366516
18.19044402541694
18.190483287798244
18.190496523377057
18.291145677354976
18.291155727778815
18.29118562744144
18.291234644369773
18.291301630276244
18.29138511465576
18.29148341676642
18.29159475565803
18.29171735085716
18.291849497728002
18.291989620729943
18.292136297938683
18.292288261952915
18.292444383719
18.292603640252747
18.292765071223183
18.29292773038477
18.293090632694486
18.293252701102745
18.293412716226392
18.29356927260174
18.293720747588143
18.293865285497617
18.294000808654285
18.29412505559444
18.294235654261037
18.29433022849728
18.294406532079343
18.294462599395885
18.294496894538675
18.29450843840773
18.392027993431157
18.39203699560014
18.392063805908784
18.392107851294952
18.392168225480038
18.392243753662598
18.392333071261753
18.392434702678145
18.39254713629626
18.392668882681022
18.392798518985273
18.39293471253758
18.393076226805434
18.3932219142777
18.393370695938213
18.393521531125128
18.393673382987078
18.39382518025244
18.39397577911846
18.394123928288288
18.394268240384122
18.394407174716214
18.39453903260936
18.394661974316072
18.394774055602678
18.39487328916302
18.394957727952853
18.39502556526045
18.395075243552455
18.39510555945657
18.395115751637274
18.4860922670865
18.486100408846504
18.486124677357605
18.4861646130917
18.486219484078863
18.48628833113164
18.48637002406239
18.486463318613843
18.486566912675528
18.486679491061437
18.48679976197863
18.48692647837941
18.48705844635027
18.487194523854555
18.487333608683546
18.48747461849787
18.487616467416245
18.487758039585806
18.48789816313648
18.488035587148865
18.488168964284068
18.488296843070778
18.488417670041937
18.488529808861728
18.488631573389924
18.488721278333838
18.48879730429809
18.488858172922686
18.488902626410113
18.488929702585317
18.488938796751242
18.57330653825775
18.57331396620617
18.57333612177514
18.573372627762556
18.57342287947956
18.57348607686666
18.57356126524652
18.573647376915428
18.57374327366076
18.573847781273304
18.573959719367732
18.574077920174034
18.574201237905488
18.574328551265793
18.574458757468566
18.574590759960145
18.574723453632707
18.574855707636246
18.574986348711256
18.575114147206914
18.57523780786152
18.575355968516767
18.575467206254952
18.57557005677409
18.575663043407832
18.575744718611865
18.57581371486045
18.575868801512513
18.575908943626597
18.575933356436444
18.575941549638674
18.65364183773792
18.65364866872394
18.653669054281558
18.653702677710026
18.653749028435943
18.653807425178144
18.65387704596325
18.653956958874346
18.65404615458681
18.65414357313415
18.65424812837415
18.65435872435367
18.654474264896102
18.654593658507835
18.654715816712663
18.65483964749108
18.65496404704357
18.655087889678626
18.65521001827541
18.655329237034252
18.655444308086786
18.655553954476403
18.655656868528567
18.65575173049131
18.655837233660744
18.65591211835835
18.65597521199777
18.65602547255155
18.65606203261909
18.65608423956443
18.65609168775643
18.72707206682205
18.727078395929126
18.727097291335102
18.727128481338788
18.727171525754198
18.727225832889026
18.727290682032937
18.72736524650039
18.72744861889078
18.727539832059733
18.727637879376157
18.727741728977154
18.727850333204035
18.72796263502071
18.728077569395854
18.728194060945377
18.72831102058739
18.72842734074768
18.728541891141994
18.728653516450258
18.728761037034044
18.728863254692104
18.72895896217298
18.729046960657776
18.729126081428202
18.72919521383453
18.72925333713097
18.729299554098304
18.729333124534964
18.729353495297605
18.72936032416736
18.793573880866216
18.793579787048525
18.79359742529038
18.793626557712155
18.793666797295113
18.79371762054231
18.793778384647144
18.793848345034434
18.793926675312875
18.79401248393785
18.79410483121132
18.794202741788276
18.794305213802755
18.79441122622267
18.794519742367935
18.794629710609115
18.79474006462087
18.794849722518443
18.794957586543923
18.79506254428514
18.795163472242955
18.7952592433456
18.795348736945968
18.795430855031498
18.795504540958795
18.79556880268447
18.795622738368827
18.79566556275025
18.7956966330006
18.795715471587624
18.79572178425324
18.853126968523274
18.85313251864861
18.853149097500527
18.85317649283533
18.853214358117786
18.853262222144387
18.85331950242845
18.85338551879925
18.853459509479556
18.853540644559274
18.85362804050202
18.85372077124525
18.853817876970375
18.853918372020992
18.854021249904804
18.854125486189453
18.854230041366417
18.854333862850236
18.85443588748621
18.854535045282773
18.854630264923063
18.854720482354928
18.85480465089067
18.854881756189055
18.854950832571923
18.855010982559435
18.85506139776917
18.855101379942624
18.85513036125906
18.855147922054954
18.85515380462347
18.905713182157704
18.905718433961006
18.905734124526997
18.905760061153998
18.905795928294268
18.905841295029408
18.905895625751977
18.905958290934816
18.906028580379704
18.906105714340107
18.90618885613526
18.906277122142143
18.906369590220063
18.9064653079528
18.906563298669482
18.906662565902195
18.906762098117046
18.906860872768657
18.90695786081657
18.907052032212086
18.907142362711916
18.90722784309202
18.907307489141022
18.907380355536947
18.907445550211087
18.907502251024543
18.907549723125232
18.907587336025344
18.90761457987875
18.907631079495147
18.907636605152877
18.951317397868493
18.95132240213842
18.951337355195296
18.951362079257528
18.951396282524023
18.95143956512634
18.951491427875766
18.951551281001525
18.951618455338192
18.951692211723916
18.95177175219031
18.95185622909505
18.951944753237772
18.952036402274473
18.95213022742864
18.95222525904467
18.952320512635684
18.952414994391532
18.9525077071037
18.952597656856625
18.95268386069393
18.952765356165575
18.95284121111403
18.952910536600513
18.952972499718808
18.953026338079642
18.95307137451265
18.953107031231376
18.953132843167904
18.95314846931097
18.953153701375708
18.989926449466527
18.989931251703542
18.989945602524294
18.989969335485444
18.990002176890847
18.99004375066554
18.99009358572201
18.990151123246864
18.990215726394407
18.990286688430416
18.990363242861108
18.990444571910736
18.99052981437578
18.990618074118707
18.99070842723878
18.990799928382927
18.990891617706936
18.99098252739501
18.99107168855548
18.99115813872352
18.99124093007157
18.991319139109102
18.991391876228736
18.9914582978444
18.99151761799718
18.991569121178546
18.991612175057895
18.99164624251188
18.991670892821315
18.991685811080576
18.991690805331935
19.021529750112087
19.021534391805908
19.021548263885748
19.021571208399006
19.021602965245528
19.0216431762957
19.021691391781225
19.021747076555915
19.02180961872101
19.021878336869108
19.02195248943692
19.022031282694012
19.02211387838558
19.02219940225171
19.022286951497513
19.02237560161782
19.022464413978835
19.022552443027486
19.02263874384236
19.022722380170872
19.0228024329758
19.022878010183597
19.022948255998298
19.02301236241118
19.023069579887665
19.023119228955665
19.023160711487726
19.02319352118506
19.02321725323957
19.02323161236776
19.023236418854882
19.04611878757418
19.04612330721782
19.046136815239556
19.046159159844077
19.04619009081325
19.046229263106795
19.046276242581058
19.04633051154334
19.046391476633715
19.04645847544208
19.04653078531034
19.046607630969497
19.046688192020284
19.046771611450648
19.046857003294946
19.046943459796545
19.047030059398786
19.047115874410398
19.047199978985276
19.047281457500894
19.04735941330429
19.047432978455547
19.04750132284329
19.047563665216984
19.04761928320192
19.047667523999824
19.047707814645374
19.04773967140341
19.047762708358686
19.04777664449354
19.047781308977243
19.06368692347032
19.063691357388503
19.06370460965155
19.063726532639343
19.063756882846366
19.063795324147538
19.06384143307971
19.063894703936917
19.06395455616459
19.06402034056555
19.064091347736095
19.06416681546632
19.064245936106836
19.06432786507423
19.0644117286233
19.06449663122012
19.064581663787965
19.064665911657677
19.064748462813174
19.064828416475656
19.064904891961646
19.064977038402017
19.06504404370755
19.0651051452674
19.065159639506376
19.065206891988744
19.06524634699179
19.065277536184617
19.06530008651219
19.065313726646277
19.065318291781484
19.074229644267625
19.07423402731631
19.074247127792233
19.074268800495723
19.074298805817264
19.07433681281553
19.07438240425271
19.074435081431307
19.07449427131268
19.074559332490118
19.074629563415776
19.07470420966462
19.07478247123351
19.07486351103551
19.07494646273154
19.075030438217823
19.07511453601043
19.075197849351127
19.075279474596343
19.075358519910903
19.075434114181235
19.075505416712257
19.07557162609995
19.07563199073247
19.075685818081613
19.075732484462865
19.07577144421836
19.07580223798655
19.075824500185686
19.075837965109987
19.07584247144701
19.077744175184417
19.077748541369473
19.077761591523593
19.077783181240218
19.077813072187237
19.07785093512449
19.077896354859604
19.07794883500153
19.078007804989664
19.07807262599179
19.078142599062872
19.078216972364384
19.07829494844112
19.07837569271111
19.078458341315677
19.07854200864314
19.07862579575721
19.078708798552054
19.078790116186706
19.078868859812776
19.078944161504364
19.07901518394611
19.079081129274563
19.079141249513846
19.079194855779935
19.07924132792866
19.079280123611436
19.07931078641204
19.07933295320044
19.07934636011397
19.079350846984706
