# vtk DataFile Version 2.0
Unstructured Grid Example
ASCII
DATASET UNSTRUCTURED_GRID

POINTS 961 float
0.400000004 0.01999999956 0
0.3866666556 0.01999999956 0
0.3733333348 0.01999999956 0
0.3600000144 0.01999999956 0
0.346666664 0.01999999956 0
0.3333333432 0.01999999956 0
0.3199999928 0.01999999956 0
0.3066666724 0.01999999956 0
0.293333322 0.01999999956 0
0.2800000012 0.01999999956 0
0.2666666804 0.01999999956 0
0.25333333 0.01999999956 0
0.2399999948 0.01999999956 0
0.226666674 0.01999999956 0
0.2133333384 0.01999999956 0
0.2000000028 0.01999999956 0
0.1866666676 0.01999999956 0
0.173333332 0.01999999956 0
0.1599999964 0.01999999956 0
0.1466666608 0.01999999956 0
0.1333333404 0.01999999956 0
0.1199999972 0.01999999956 0
0.1066666692 0.01999999956 0
0.0933333336 0.01999999956 0
0.0799999984 0.01999999956 0
0.06666667 0.01999999956 0
0.0533333348 0.01999999956 0
0.03999999912 0.01999999956 0
0.02666666732 0.01999999956 0
0.01333333364 0.01999999956 0
0.0 0.01999999956 0
0.400000004 0.00666666684 0
0.3866666556 0.00666666684 0
0.3733333348 0.00666666684 0
0.3600000144 0.00666666684 0
0.346666664 0.00666666684 0
0.3333333432 0.00666666684 0
0.3199999928 0.00666666684 0
0.3066666724 0.00666666684 0
0.293333322 0.00666666684 0
0.2800000012 0.00666666684 0
0.2666666804 0.00666666684 0
0.25333333 0.00666666684 0
0.2399999948 0.00666666684 0
0.226666674 0.00666666684 0
0.2133333384 0.00666666684 0
0.2000000028 0.00666666684 0
0.1866666676 0.00666666684 0
0.173333332 0.00666666684 0
0.1599999964 0.00666666684 0
0.1466666608 0.00666666684 0
0.1333333404 0.00666666684 0
0.1199999972 0.00666666684 0
0.1066666692 0.00666666684 0
0.0933333336 0.00666666684 0
0.0799999984 0.00666666684 0
0.06666667 0.00666666684 0
0.0533333348 0.00666666684 0
0.03999999912 0.00666666684 0
0.02666666732 0.00666666684 0
0.01333333364 0.00666666684 0
0.0 0.00666666684 0
0.400000004 -0.00666666684 0
0.3866666556 -0.00666666684 0
0.3733333348 -0.00666666684 0
0.3600000144 -0.00666666684 0
0.346666664 -0.00666666684 0
0.3333333432 -0.00666666684 0
0.3199999928 -0.00666666684 0
0.3066666724 -0.00666666684 0
0.293333322 -0.00666666684 0
0.2800000012 -0.00666666684 0
0.2666666804 -0.00666666684 0
0.25333333 -0.00666666684 0
0.2399999948 -0.00666666684 0
0.226666674 -0.00666666684 0
0.2133333384 -0.00666666684 0
0.2000000028 -0.00666666684 0
0.1866666676 -0.00666666684 0
0.173333332 -0.00666666684 0
0.1599999964 -0.00666666684 0
0.1466666608 -0.00666666684 0
0.1333333404 -0.00666666684 0
0.1199999972 -0.00666666684 0
0.1066666692 -0.00666666684 0
0.0933333336 -0.00666666684 0
0.0799999984 -0.00666666684 0
0.06666667 -0.00666666684 0
0.0533333348 -0.00666666684 0
0.03999999912 -0.00666666684 0
0.02666666732 -0.00666666684 0
0.01333333364 -0.00666666684 0
0.0 -0.00666666684 0
0.400000004 -0.01999999956 0
0.3866666556 -0.01999999956 0
0.3733333348 -0.01999999956 0
0.3600000144 -0.01999999956 0
0.346666664 -0.01999999956 0
0.3333333432 -0.01999999956 0
0.3199999928 -0.01999999956 0
0.3066666724 -0.01999999956 0
0.293333322 -0.01999999956 0
0.2800000012 -0.01999999956 0
0.2666666804 -0.01999999956 0
0.25333333 -0.01999999956 0
0.2399999948 -0.01999999956 0
0.226666674 -0.01999999956 0
0.2133333384 -0.01999999956 0
0.2000000028 -0.01999999956 0
0.1866666676 -0.01999999956 0
0.173333332 -0.01999999956 0
0.1599999964 -0.01999999956 0
0.1466666608 -0.01999999956 0
0.1333333404 -0.01999999956 0
0.1199999972 -0.01999999956 0
0.1066666692 -0.01999999956 0
0.0933333336 -0.01999999956 0
0.0799999984 -0.01999999956 0
0.06666667 -0.01999999956 0
0.0533333348 -0.01999999956 0
0.03999999912 -0.01999999956 0
0.02666666732 -0.01999999956 0
0.01333333364 -0.01999999956 0
0.0 -0.01999999956 0
0.400000004 -0.03333333508 0
0.3866666556 -0.03333333508 0
0.3733333348 -0.03333333508 0
0.3600000144 -0.03333333508 0
0.346666664 -0.03333333508 0
0.3333333432 -0.03333333508 0
0.3199999928 -0.03333333508 0
0.3066666724 -0.03333333508 0
0.293333322 -0.03333333508 0
0.2800000012 -0.03333333508 0
0.2666666804 -0.03333333508 0
0.25333333 -0.03333333508 0
0.2399999948 -0.03333333508 0
0.226666674 -0.03333333508 0
0.2133333384 -0.03333333508 0
0.2000000028 -0.03333333508 0
0.1866666676 -0.03333333508 0
0.173333332 -0.03333333508 0
0.1599999964 -0.03333333508 0
0.1466666608 -0.03333333508 0
0.1333333404 -0.03333333508 0
0.1199999972 -0.03333333508 0
0.1066666692 -0.03333333508 0
0.0933333336 -0.03333333508 0
0.0799999984 -0.03333333508 0
0.06666667 -0.03333333508 0
0.0533333348 -0.03333333508 0
0.03999999912 -0.03333333508 0
0.02666666732 -0.03333333508 0
0.01333333364 -0.03333333508 0
0.0 -0.03333333508 0
0.400000004 -0.0466666668 0
0.3866666556 -0.0466666668 0
0.3733333348 -0.0466666668 0
0.3600000144 -0.0466666668 0
0.346666664 -0.0466666668 0
0.3333333432 -0.0466666668 0
0.3199999928 -0.0466666668 0
0.3066666724 -0.0466666668 0
0.293333322 -0.0466666668 0
0.2800000012 -0.0466666668 0
0.2666666804 -0.0466666668 0
0.25333333 -0.0466666668 0
0.2399999948 -0.0466666668 0
0.226666674 -0.0466666668 0
0.2133333384 -0.0466666668 0
0.2000000028 -0.0466666668 0
0.1866666676 -0.0466666668 0
0.173333332 -0.0466666668 0
0.1599999964 -0.0466666668 0
0.1466666608 -0.0466666668 0
0.1333333404 -0.0466666668 0
0.1199999972 -0.0466666668 0
0.1066666692 -0.0466666668 0
0.0933333336 -0.0466666668 0
0.0799999984 -0.0466666668 0
0.06666667 -0.0466666668 0
0.0533333348 -0.0466666668 0
0.03999999912 -0.0466666668 0
0.02666666732 -0.0466666668 0
0.01333333364 -0.0466666668 0
0.0 -0.0466666668 0
0.400000004 -0.0599999988 0
0.3866666556 -0.0599999988 0
0.3733333348 -0.0599999988 0
0.3600000144 -0.0599999988 0
0.346666664 -0.0599999988 0
0.3333333432 -0.0599999988 0
0.3199999928 -0.0599999988 0
0.3066666724 -0.0599999988 0
0.293333322 -0.0599999988 0
0.2800000012 -0.0599999988 0
0.2666666804 -0.0599999988 0
0.25333333 -0.0599999988 0
0.2399999948 -0.0599999988 0
0.226666674 -0.0599999988 0
0.2133333384 -0.0599999988 0
0.2000000028 -0.0599999988 0
0.1866666676 -0.0599999988 0
0.173333332 -0.0599999988 0
0.1599999964 -0.0599999988 0
0.1466666608 -0.0599999988 0
0.1333333404 -0.0599999988 0
0.1199999972 -0.0599999988 0
0.1066666692 -0.0599999988 0
0.0933333336 -0.0599999988 0
0.0799999984 -0.0599999988 0
0.06666667 -0.0599999988 0
0.0533333348 -0.0599999988 0
0.03999999912 -0.0599999988 0
0.02666666732 -0.0599999988 0
0.01333333364 -0.0599999988 0
0.0 -0.0599999988 0
0.400000004 -0.0733333304 0
0.3866666556 -0.0733333304 0
0.3733333348 -0.0733333304 0
0.3600000144 -0.0733333304 0
0.346666664 -0.0733333304 0
0.3333333432 -0.0733333304 0
0.3199999928 -0.0733333304 0
0.3066666724 -0.0733333304 0
0.293333322 -0.0733333304 0
0.2800000012 -0.0733333304 0
0.2666666804 -0.0733333304 0
0.25333333 -0.0733333304 0
0.2399999948 -0.0733333304 0
0.226666674 -0.0733333304 0
0.2133333384 -0.0733333304 0
0.2000000028 -0.0733333304 0
0.1866666676 -0.0733333304 0
0.173333332 -0.0733333304 0
0.1599999964 -0.0733333304 0
0.1466666608 -0.0733333304 0
0.1333333404 -0.0733333304 0
0.1199999972 -0.0733333304 0
0.1066666692 -0.0733333304 0
0.0933333336 -0.0733333304 0
0.0799999984 -0.0733333304 0
0.06666667 -0.0733333304 0
0.0533333348 -0.0733333304 0
0.03999999912 -0.0733333304 0
0.02666666732 -0.0733333304 0
0.01333333364 -0.0733333304 0
0.0 -0.0733333304 0
0.400000004 -0.086666666 0
0.3866666556 -0.086666666 0
0.3733333348 -0.086666666 0
0.3600000144 -0.086666666 0
0.346666664 -0.086666666 0
0.3333333432 -0.086666666 0
0.3199999928 -0.086666666 0
0.3066666724 -0.086666666 0
0.293333322 -0.086666666 0
0.2800000012 -0.086666666 0
0.2666666804 -0.086666666 0
0.25333333 -0.086666666 0
0.2399999948 -0.086666666 0
0.226666674 -0.086666666 0
0.2133333384 -0.086666666 0
0.2000000028 -0.086666666 0
0.1866666676 -0.086666666 0
0.173333332 -0.086666666 0
0.1599999964 -0.086666666 0
0.1466666608 -0.086666666 0
0.1333333404 -0.086666666 0
0.1199999972 -0.086666666 0
0.1066666692 -0.086666666 0
0.0933333336 -0.086666666 0
0.0799999984 -0.086666666 0
0.06666667 -0.086666666 0
0.0533333348 -0.086666666 0
0.03999999912 -0.086666666 0
0.02666666732 -0.086666666 0
0.01333333364 -0.086666666 0
0.0 -0.086666666 0
0.400000004 -0.1000000016 0
0.3866666556 -0.1000000016 0
0.3733333348 -0.1000000016 0
0.3600000144 -0.1000000016 0
0.346666664 -0.1000000016 0
0.3333333432 -0.1000000016 0
0.3199999928 -0.1000000016 0
0.3066666724 -0.1000000016 0
0.293333322 -0.1000000016 0
0.2800000012 -0.1000000016 0
0.2666666804 -0.1000000016 0
0.25333333 -0.1000000016 0
0.2399999948 -0.1000000016 0
0.226666674 -0.1000000016 0
0.2133333384 -0.1000000016 0
0.2000000028 -0.1000000016 0
0.1866666676 -0.1000000016 0
0.173333332 -0.1000000016 0
0.1599999964 -0.1000000016 0
0.1466666608 -0.1000000016 0
0.1333333404 -0.1000000016 0
0.1199999972 -0.1000000016 0
0.1066666692 -0.1000000016 0
0.0933333336 -0.1000000016 0
0.0799999984 -0.1000000016 0
0.06666667 -0.1000000016 0
0.0533333348 -0.1000000016 0
0.03999999912 -0.1000000016 0
0.02666666732 -0.1000000016 0
0.01333333364 -0.1000000016 0
0.0 -0.1000000016 0
0.400000004 -0.1133333372 0
0.3866666556 -0.1133333372 0
0.3733333348 -0.1133333372 0
0.3600000144 -0.1133333372 0
0.346666664 -0.1133333372 0
0.3333333432 -0.1133333372 0
0.3199999928 -0.1133333372 0
0.3066666724 -0.1133333372 0
0.293333322 -0.1133333372 0
0.2800000012 -0.1133333372 0
0.2666666804 -0.1133333372 0
0.25333333 -0.1133333372 0
0.2399999948 -0.1133333372 0
0.226666674 -0.1133333372 0
0.2133333384 -0.1133333372 0
0.2000000028 -0.1133333372 0
0.1866666676 -0.1133333372 0
0.173333332 -0.1133333372 0
0.1599999964 -0.1133333372 0
0.1466666608 -0.1133333372 0
0.1333333404 -0.1133333372 0
0.1199999972 -0.1133333372 0
0.1066666692 -0.1133333372 0
0.0933333336 -0.1133333372 0
0.0799999984 -0.1133333372 0
0.06666667 -0.1133333372 0
0.0533333348 -0.1133333372 0
0.03999999912 -0.1133333372 0
0.02666666732 -0.1133333372 0
0.01333333364 -0.1133333372 0
0.0 -0.1133333372 0
0.400000004 -0.1266666652 0
0.3866666556 -0.1266666652 0
0.3733333348 -0.1266666652 0
[...]
POINT_DATA 961
SCALARS Temp float 1
LOOKUP_TABLE default
0.7488377065603828
0.778746702978892
0.8002108689337923
0.8158178099616724
0.827253508659121
0.8356740866058209
0.8419026347623972
0.8465315859387456
0.8499921393891114
0.8526002417672728
0.8545901417246485
0.856137656851732
0.8573771494612803
0.8584147384271013
0.8593381571583405
0.8602245738637875
0.8611477528145337
0.8621846374474668
0.8634222662966732
0.8649656849196228
0.8669475813716615
0.8695409716802017
0.872975369836354
0.8775597624773717
0.8837134525515182
0.8920098317577743
0.9032387432043023
0.9184977164531678
0.9393309372150356
0.9679794531747641
1.0079981614880211
0.7903810924156369
0.8197089495014427
0.8409425845220498
0.8564641040583372
0.8678605452155002
0.8762650156765929
0.8824887221619312
0.8871184411706635
0.8905824161744026
0.8931950556828576
0.8951898184620704
0.8967421503422575
0.8979862818770872
0.899028328767219
0.8999560927103586
0.9008468522667867
0.9017744973972435
0.9028160965595039
0.9040587937267608
0.9056076925474084
0.907595447825109
0.9101948667951004
0.9136349518086512
0.9182236184772854
0.9243780963600677
0.9326678277008741
0.9438750669472887
0.9590816578458696
0.979799127606979
1.0081555662074901
1.0472333020441642
2.735400525171898
2.7397578343865394
2.7519017940322676
2.7631025847358845
2.7723652029172188
2.779735314993455
2.785506450113545
2.789995497029488
2.7934835411410583
2.7962038734006183
2.7983452341732287
2.800059373569386
2.8014692456405417
2.802676672604836
2.80376916572241
2.8048260242924465
2.80592400799572
2.8071428999877632
2.808571261300801
2.810312734092878
2.8124932456501273
2.8152693516242664
2.8188378622696395
2.8234463732577364
2.829403056396901
2.8370806893066325
2.8469004866122947
2.8592527294331735
2.8741974757102025
2.890396812395286
2.896212541895232
4.656174848201106
4.65855284143601
4.664389476764551
4.671682841669507
4.678598528930076
4.684594858814399
4.6895837784744945
4.693649143255742
4.696929666786466
4.699571543761577
4.701710386473949
4.703465827010491
4.7049417457545335
4.706228920886802
4.707408618663457
4.7085565307121575
4.709746850716131
4.711056430374117
4.712569047982594
4.714379800940005
4.716599528555033
4.719358956975443
4.722811658430887
4.727133977126643
4.732517516573056
4.739144689099906
4.747125347096005
4.756340183096053
4.766063944626755
4.773847862595697
4.777019219911724
6.571270506084646
6.572536210884076
6.575956966141627
6.580588825624213
6.585521841011286
6.590157574473842
6.594249687310755
6.597739977716241
6.6006619162596785
6.603088375412734
6.605105262395895
6.606798976641979
6.60825128892775
6.609538163506864
6.610730620299886
6.611896666181102
6.6131037776022925
6.614421614826859
6.615924761266399
6.617695246054195
6.61982445830496
6.6224137577146465
6.625572399902901
6.629410362288891
6.634021313212791
6.639447107501768
6.645607896886965
6.6521730338254645
6.65834245712705
6.662900704763594
6.66458761280823
8.482935760278913
8.483706835339705
8.485840462767447
8.488895464794263
8.492361225386732
8.495830406283563
8.49905424564634
8.501920466589036
8.504403076855176
8.506524480682906
8.508331478677574
8.509881323264215
8.511234318120598
8.512450450198108
8.5135883961193
8.51470591029047
8.515860971083665
8.517113234556081
8.518525449086793
8.520164444953286
8.52210116318119
8.524408908760456
8.52715844126688
8.530407813761524
8.534183509553184
8.53844814331902
8.543049788106314
8.547654776415929
8.551718240233761
8.55455785385556
8.555584333412188
10.392287717046875
10.392778991146676
10.39416408502203
10.396211843718405
10.398633300930621
10.401164514961337
10.4036140466329
10.405869652913317
10.407882820482474
10.409647952257258
10.411185452596245
10.41253001435489
10.413723348434516
10.41481013842321
10.415836124760519
10.416847533548365
10.417891279163712
10.419015478022908
10.420269887659293
10.421705849095115
10.423375193477693
10.425327380156107
10.42760377711875
10.430227735973737
10.433188755965475
10.436419695098829
10.439768913805244
10.44297946865595
10.445698051020564
10.447538265622281
10.448191187502953
12.299817952540838
12.300134585957492
12.301037202246112
12.302399636554611
12.304055241688648
12.305839324402424
12.30761898907344
12.30930478638275
12.310848254671843
12.312232795074841
12.313463688403472
12.314559883715326
12.315548198715769
12.31645966436352
12.31732746265055
12.318185950853744
12.319070339294596
12.320016631144112
12.321061479154153
12.322241585711975
12.323592198779913
12.32514415704574
12.326918781909404
12.328919978212651
12.331123123770976
12.333461586410985
12.335814486201743
12.338003289795434
12.339807349144172
12.341003662430774
12.341423505097096
14.205769884460146
14.205965555185525
14.206527459511594
14.207387396659847
14.20845217021411
14.209624911434505
14.210822147267695
14.211982759853122
14.213069412341744
14.214065190196344
14.214968520201555
14.215788250617805
14.216539774760587
14.21724235157875
14.21791742808563
14.21858769576096
14.219276606629172
14.220008072923846
14.220806097011295
14.221694059075894
14.222693353238665
14.223821031445596
14.225086081870199
14.22648415567703
14.227990901718144
14.229555078874151
14.23109403397563
14.232495519514224
14.233629642634959
14.234371595746953
14.234630109593835
16.11026142673184
16.11036408099926
16.110660540365544
16.1111192204823
16.111696021790355
16.11234362248905
16.113019473779033
16.11369064571397
16.11433536787446
16.114942136016396
16.115507655351582
16.116034551473884
16.116529399953514
16.117001262209367
16.117460693378764
16.11791911813199
16.118388445486897
16.118880777512473
16.11940807607436
16.11998164175238
16.12061124651978
16.121303762324633
16.12206113744019
16.1228777220079
16.123737164419694
16.12460961143052
16.125450497664378
16.1262025559925
16.126802280886377
16.127190572386368
16.12732513561558
18.013348449611794
18.01337072178115
18.01343621243236
18.013541186252212
18.013680146804653
18.013846695236683
18.014034378544796
18.014237346499105
18.014450753491175
18.01467090589383
18.01489523326671
18.015122147435108
18.015350855703844
18.015581170697622
18.015813330247163
18.016047833332237
18.016285291148616
18.016526280773835
18.016771191703302
18.017020054025505
18.017272339125707
18.01752673201522
18.017780878369017
18.01803114219068
18.018272418293122
18.018498089353123
18.018700226275794
18.01887011787217
18.01899915044858
18.01907993565712
18.019107457241265
18.119527568027884
18.119546098830728
18.119600789848075
18.119689078216055
18.119807123482932
18.119950332692447
18.12011390818227
18.120293306947435
18.120484562933864
18.120684450384417
18.120890524146553
18.121101065310608
18.121314974147566
18.121531642252677
18.12175081630512
18.12197246259652
18.12219663649415
18.1224233504133
18.12265243663053
18.122883400125808
18.123115258994847
18.12334637756211
18.123574299628032
18.12379561478844
18.12400588873102
18.124199714957783
18.124370937555707
18.124513076670382
18.124619944827145
18.124686374920767
18.124708921938492
18.225594284266357
18.22561002668605
18.225656621022935
18.225732254337572
18.22583416953177
18.22595899611977
18.22610311048886
18.226262956071075
18.22643529034493
18.226617332762974
18.226806830112505
18.227002048307767
18.227201715977344
18.227404942056296
18.22761111644518
18.227819802969282
18.228030631128828
18.228243184047496
18.228456882998437
18.22867086793125
18.228883875418735
18.22909412160365
18.229299197782893
18.2294960055461
18.229680750177955
18.229849027596785
18.229996027299777
18.23011685891089
18.23020698307639
18.23026269010891
18.230281542607877
18.331553878932805
18.331567496618522
18.33160789192107
18.331673745533426
18.331763026167888
18.331873204448062
18.33200149416836
18.33214507620565
18.3323012839481
18.332467726482673
18.332642357643056
18.332823490141223
18.33300976976326
18.333200124558623
18.333393694613868
18.333589750436815
18.333787607073308
18.333986533468796
18.334185659792258
18.3343838845639
18.334579784867316
18.33477153758265
18.334956857760137
18.33513297500447
18.335296657531963
18.335444305224843
18.33557211999987
18.33567635135727
18.33575359904536
18.335801133629097
18.335817183311793
18.43741028928929
18.43742225894362
18.437457827418367
18.437516008195274
18.43759526621752
18.437693659438732
18.437809003241256
18.437939028081182
18.438081517564886
18.43823440685526
18.438395846168383
18.438564224068095
18.438738159382908
18.43891647170735
18.439098133277625
18.43928220871253
18.439467789475707
18.439653923515557
18.439839543889796
18.440023399329284
18.440203990601912
18.44037951993996
18.440547857719324
18.440706542277027
18.44085281650448
18.440983714200083
18.44109619752997
18.441187340217933
18.441254541891542
18.441295746656984
18.441309633505508
18.543166461742548
18.543177135874117
18.5432088979678
18.543260990356284
18.543332223107903
18.543421069660365
18.54352578077674
18.543644496489357
18.543775348829108
18.543916538774376
18.544066391075983
18.5442233798872
18.544386130508514
18.544553403999352
18.544724065438853
18.54489704089482
18.545071269294116
18.545245649895048
18.54541898945019
18.545589952296766
18.545757017098232
18.54591844644206
18.546072271719776
18.546216305424398
18.54634818077043
18.546465426794455
18.54656557711754
18.546646306511825
18.546705584262433
18.546741825790907
18.546754021858277
18.645398833895037
18.64540846958357
18.645437172277482
18.64548434467783
18.64554904098127
18.645630032711153
18.645725888992203
18.64583505680782
18.645955937717183
18.646086947423274
18.646226561660526
18.64637334091146
18.646525937314223
18.646683088504034
18.646843597834792
18.64700630485503
18.647170051451553
18.647333644232535
18.647495817055674
18.647655196755114
18.64781027531335
18.64795939357915
18.64810073755529
18.648232356692496
18.648352201925057
18.648458188878717
18.648548283198515
18.648620602721063
18.6486735284562
18.648705811516905
18.648716662567377
18.740660939005714
18.7406697234439
18.740695912148038
18.740739022284867
18.74079828371155
18.74087268507417
18.740961031258134
18.74106200152414
18.74117420720152
18.741296237668948
18.74142669822342
18.741564232558222
18.741707532160806
18.741855336135632
18.74200642006076
18.742159576827977
18.742313594121278
18.742467228812842
18.742619181774167
18.742768075751336
18.742912438961525
18.743050698515543
18.743181183658656
18.7433021463629
18.743411795837176
18.743508350869106
18.743590106654402
18.743655511724636
18.743703249232777
18.743732313568092
18.74374207343936
18.828924235655442
18.8289323142264
18.828956414035826
18.82899613517782
18.829050835659714
18.82911966421618
18.829201602091874
18.829295505635187
18.82940015012106
18.829514265338425
18.829636566743925
18.829765775366717
18.829900628224802
18.83003988199812
18.830182308071173
18.83032668119584
18.830471765754524
18.830616299566696
18.830758978251637
18.830898442323885
18.831033269098064
18.83116197267444
18.831283011277137
18.831394808143976
18.83149578197463
18.831584390018094
18.83165918058645
18.831718851486155
18.83176231032909
18.83178873029705
18.83179759542729
18.910165633189386
18.910173121219085
18.910195470422426
18.91023234179208
18.910283188023293
18.910347277256644
18.910423723983598
18.91051152065418
18.910609571394467
18.910716719751363
18.910831774437735
18.910953526795588
18.911080761455658
18.911212262470467
18.911346812759156
18.911483188594726
18.911620152541474
18.911756444469958
18.911890773184165
18.912021810379656
18.912148188496275
18.912268505067907
18.912381332359303
18.912485237549504
18.912578809263763
18.91266069307962
18.912729633089196
18.912784516769307
18.91282442036198
18.91284865011838
18.91285677538157
18.98436709405806
18.98437408499346
18.984394958496974
18.984429420835347
18.98447699548743
18.984537040617624
18.98460877235648
18.98469128860088
18.984783595366057
18.984884628663814
18.98499327599566
18.98510839169109
18.985228807429856
18.98535333992939
18.98548079350136
18.98560995882312
18.985739610861494
18.98586850530622
18.985995375619424
18.986118932015618
18.98623786350895
18.986350845108127
18.986456548639442
18.986553661787617
18.986640911148456
18.986717091668304
18.98678109988377
18.986831968830984
18.986868902719436
18.986891307952067
18.98689881772729
19.051515146545146
19.05152171774165
19.051541343710838
19.051573764744216
19.051618557783925
19.051675149520634
19.05174283428524
19.05182079227457
19.05190811052999
19.052003800453285
19.052106816008635
19.05221606729872
19.052330430784718
19.0524487579392
19.052569879984915
19.052692609782056
19.05281574342121
19.05293806066358
19.053058325970838
19.053175291102743
19.053287700077195
19.053394298173302
19.053493843268043
19.053585123611086
19.053666977924053
19.053738320057782
19.05379816593223
19.053845661112447
19.05388010775444
19.053900988357974
19.053907984406635
19.111600719096614
19.111606935974883
19.11162550782781
19.111656200745937
19.11169863239667
19.11175228204346
19.11181650460455
19.111890544884055
19.111973554627177
19.112064606806285
19.112162711302773
19.112266827064392
19.11237587197273
19.112488732078944
19.112604267858735
19.112721318340043
19.11283870535782
19.112955236912473
19.113069711077333
19.113180921162
19.11328766266184
19.113388743370397
19.113482994836904
19.113569288914857
19.11364655542574
19.11371380308507
19.113770141686548
19.113814804267847
19.113847168448515
19.113866774976547
19.11387334213744
19.164617757127107
19.164623676207555
19.164641361396207
19.164670598466078
19.164711036284707
19.16476219465599
19.164823475639572
19.1648941749137
19.164973495965313
19.16506056199445
19.165154429682204
19.165254100228783
19.165358528876098
19.165466634479348
19.165577306803307
19.16568941224193
19.16580179997713
19.165913307431836
19.166022766226316
19.16612900913294
19.16623087835884
19.166327236304575
19.166416976926243
19.166499041177186
19.166572432703582
19.166636235883686
19.16668963443115
19.166731929565863
19.166762557266967
19.166781103068914
19.166787313446534
19.21056354920499
19.210569220345526
19.210586166849108
19.210614189534905
19.21065296121175
19.2107020329754
19.21076084356713
19.21082872867714
19.210904933046184
19.210988620622057
19.211078886885915
19.211174769021376
19.2112752551269
19.21137929396668
19.21148580297147
19.211593675074866
19.21170178621391
19.21180900226324
19.211914186427524
19.212016207426018
19.212113948648717
19.21220631926233
19.212292265371048
19.2123707845041
19.212440939748006
19.212501875571522
19.2125528337442
19.212593168560787
19.212622361116047
19.212640031391743
19.212645947472236
19.249437098444535
19.24944256652251
19.249458907740234
19.249485934369094
19.249523337501554
19.249570692254856
19.24962746572941
19.249693024839825
19.249766646902124
19.2498475285179
19.249934796825777
19.25002751900701
19.250124711233667
19.2502253485022
19.25032837310285
19.250432702226977
19.250537236397616
19.25064086743384
19.250742486832348
19.2508409947803
19.25093530986878
19.251024380359908
19.251107195109718
19.25118279726318
19.25125029716714
19.25130888651648
19.251357852275856
19.251396589742875
19.251424614659243
19.25144157334511
19.251447250359938
19.281239207315927
19.281244513504568
19.281260371977268
19.281286603596655
19.281322913210563
19.281368894088683
19.28142403489128
19.281487726459186
19.28155927131717
19.2816378916449
19.281722739741035
19.281812907032787
19.28190743280976
19.28200531408399
19.28210551436378
19.282206971783264
19.28230860816404
19.282409337681273
19.28250807591238
19.282603749394838
19.282695305683895
19.282781724672553
19.28286202928258
19.282935298526095
19.28300067949032
19.283057400235045
19.283104782252046
19.283142251964083
19.283169351282215
19.28318574634738
19.283191234087187
19.305971463111263
19.305976645870434
19.305992136175707
19.30601776113077
19.30605323559941
19.306098166116847
19.30615205717631
19.306214317301734
19.306284267796322
19.306361150076736
19.30644413557816
19.306532334406402
19.3066248039067
19.306720558521754
19.306818578757078
19.306917819653613
19.307017220264864
19.307115712786537
19.307212232041195
19.307305725383717
19.307395162963005
19.30747954903898
19.30755793247456
19.307629419315262
19.307693184094767
19.307748481834277
19.307794659463784
19.307831166220815
19.307857563121782
19.307873530735215
19.307878874973973
19.323635588132674
19.323640683995187
19.323655915049674
19.323681112638347
19.323715998439308
19.323760188037898
19.323813196769112
19.323874445323955
19.323943268002637
19.324018919631087
19.324100585093607
19.32418738774424
19.324278397859157
19.324372642481826
19.324469114502676
19.324566781344668
19.324664594699207
19.32476149994468
19.32485644590115
19.324948394945046
19.325036333385246
19.32511928275634
19.325196310159452
19.325266540504494
19.32532916735273
19.32538346431198
19.325428795766456
19.325464626547856
19.325490530692004
19.32550619857713
19.325511442216392
19.33423332149478
19.33423836570836
19.33425344265081
19.334278386124303
19.334312921766617
19.33435667043166
19.33440915378183
19.334469799631684
19.334537949920964
19.33461286739421
19.33469374492069
19.334779713766757
19.33486985197905
19.334963194217778
19.33505874089629
19.3351554669822
19.33525233187372
19.33534828897573
19.335442295600096
19.335533323191513
19.33562036775984
19.335702461151268
19.335778681295274
19.33584816424731
19.335910114762164
19.33596381734127
19.33600864656678
19.336044076358295
19.336069688323725
19.33608517853806
19.33609036255358
19.337765753908986
19.337770780986105
19.337785806792816
19.33781066593783
19.337845085358023
19.337888687637417
19.337940996518768
19.338001442162636
19.338069369029476
19.33814404248279
19.338224658039785
19.338310349598153
19.338400197796503
19.338493239843004
19.338588478673355
19.33868489178863
19.33878144117591
19.33887708293428
19.338970777221107
19.33906149851245
19.339148246052375
19.339230055115213
19.339306007221058
19.339375242112112
19.339436968237898
19.33949047368899
19.339535136402244
19.339570433282958
19.339595948424215
19.33961137976929
19.3396165440306
