# vtk DataFile Version 2.0
Unstructured Grid Example
ASCII
DATASET UNSTRUCTURED_GRID

POINTS 961 float
0.400000004 0.01999999956 0
0.3866666556 0.01999999956 0
0.3733333348 0.01999999956 0
0.3600000144 0.01999999956 0
0.346666664 0.01999999956 0
0.3333333432 0.01999999956 0
0.3199999928 0.01999999956 0
0.3066666724 0.01999999956 0
0.293333322 0.01999999956 0
0.2800000012 0.01999999956 0
0.2666666804 0.01999999956 0
0.25333333 0.01999999956 0
0.2399999948 0.01999999956 0
0.226666674 0.01999999956 0
0.2133333384 0.01999999956 0
0.2000000028 0.01999999956 0
0.1866666676 0.01999999956 0
0.173333332 0.01999999956 0
0.1599999964 0.01999999956 0
0.1466666608 0.01999999956 0
0.1333333404 0.01999999956 0
0.1199999972 0.01999999956 0
0.1066666692 0.01999999956 0
0.0933333336 0.01999999956 0
0.0799999984 0.01999999956 0
0.06666667 0.01999999956 0
0.0533333348 0.01999999956 0
0.03999999912 0.01999999956 0
0.02666666732 0.01999999956 0
0.01333333364 0.01999999956 0
0.0 0.01999999956 0
0.400000004 0.00666666684 0
0.3866666556 0.00666666684 0
0.3733333348 0.00666666684 0
0.3600000144 0.00666666684 0
0.346666664 0.00666666684 0
0.3333333432 0.00666666684 0
0.3199999928 0.00666666684 0
0.3066666724 0.00666666684 0
0.293333322 0.00666666684 0
0.2800000012 0.00666666684 0
0.2666666804 0.00666666684 0
0.25333333 0.00666666684 0
0.2399999948 0.00666666684 0
0.226666674 0.00666666684 0
0.2133333384 0.00666666684 0
0.2000000028 0.00666666684 0
0.1866666676 0.00666666684 0
0.173333332 0.00666666684 0
0.1599999964 0.00666666684 0
0.1466666608 0.00666666684 0
0.1333333404 0.00666666684 0
0.1199999972 0.00666666684 0
0.1066666692 0.00666666684 0
0.0933333336 0.00666666684 0
0.0799999984 0.00666666684 0
0.06666667 0.00666666684 0
0.0533333348 0.00666666684 0
0.03999999912 0.00666666684 0
0.02666666732 0.00666666684 0
0.01333333364 0.00666666684 0
0.0 0.00666666684 0
0.400000004 -0.00666666684 0
0.3866666556 -0.00666666684 0
0.3733333348 -0.00666666684 0
0.3600000144 -0.00666666684 0
0.346666664 -0.00666666684 0
0.3333333432 -0.00666666684 0
0.3199999928 -0.00666666684 0
0.3066666724 -0.00666666684 0
0.293333322 -0.00666666684 0
0.2800000012 -0.00666666684 0
0.2666666804 -0.00666666684 0
0.25333333 -0.00666666684 0
0.2399999948 -0.00666666684 0
0.226666674 -0.00666666684 0
0.2133333384 -0.00666666684 0
0.2000000028 -0.00666666684 0
0.1866666676 -0.00666666684 0
0.173333332 -0.00666666684 0
0.1599999964 -0.00666666684 0
0.1466666608 -0.00666666684 0
0.1333333404 -0.00666666684 0
0.1199999972 -0.00666666684 0
0.1066666692 -0.00666666684 0
0.0933333336 -0.00666666684 0
0.0799999984 -0.00666666684 0
0.06666667 -0.00666666684 0
0.0533333348 -0.00666666684 0
0.03999999912 -0.00666666684 0
0.02666666732 -0.00666666684 0
0.01333333364 -0.00666666684 0
0.0 -0.00666666684 0
0.400000004 -0.01999999956 0
0.3866666556 -0.01999999956 0
0.3733333348 -0.01999999956 0
0.3600000144 -0.01999999956 0
0.346666664 -0.01999999956 0
0.3333333432 -0.01999999956 0
0.3199999928 -0.01999999956 0
0.3066666724 -0.01999999956 0
0.293333322 -0.01999999956 0
0.2800000012 -0.01999999956 0
0.2666666804 -0.01999999956 0
0.25333333 -0.01999999956 0
0.2399999948 -0.01999999956 0
0.226666674 -0.01999999956 0
0.2133333384 -0.01999999956 0
0.2000000028 -0.01999999956 0
0.1866666676 -0.01999999956 0
0.173333332 -0.01999999956 0
0.1599999964 -0.01999999956 0
0.1466666608 -0.01999999956 0
0.1333333404 -0.01999999956 0
0.1199999972 -0.01999999956 0
0.1066666692 -0.01999999956 0
0.0933333336 -0.01999999956 0
0.0799999984 -0.01999999956 0
0.06666667 -0.01999999956 0
0.0533333348 -0.01999999956 0
0.03999999912 -0.01999999956 0
0.02666666732 -0.01999999956 0
0.01333333364 -0.01999999956 0
0.0 -0.01999999956 0
0.400000004 -0.03333333508 0
0.3866666556 -0.03333333508 0
0.3733333348 -0.03333333508 0
0.3600000144 -0.03333333508 0
0.346666664 -0.03333333508 0
0.3333333432 -0.03333333508 0
0.3199999928 -0.03333333508 0
0.3066666724 -0.03333333508 0
0.293333322 -0.03333333508 0
0.2800000012 -0.03333333508 0
0.2666666804 -0.03333333508 0
0.25333333 -0.03333333508 0
0.2399999948 -0.03333333508 0
0.226666674 -0.03333333508 0
0.2133333384 -0.03333333508 0
0.2000000028 -0.03333333508 0
0.1866666676 -0.03333333508 0
0.173333332 -0.03333333508 0
0.1599999964 -0.03333333508 0
0.1466666608 -0.03333333508 0
0.1333333404 -0.03333333508 0
0.1199999972 -0.03333333508 0
0.1066666692 -0.03333333508 0
0.0933333336 -0.03333333508 0
0.0799999984 -0.03333333508 0
0.06666667 -0.03333333508 0
0.0533333348 -0.03333333508 0
0.03999999912 -0.03333333508 0
0.02666666732 -0.03333333508 0
0.01333333364 -0.03333333508 0
0.0 -0.03333333508 0
0.400000004 -0.0466666668 0
0.3866666556 -0.0466666668 0
0.3733333348 -0.0466666668 0
0.3600000144 -0.0466666668 0
0.346666664 -0.0466666668 0
0.3333333432 -0.0466666668 0
0.3199999928 -0.0466666668 0
0.3066666724 -0.0466666668 0
0.293333322 -0.0466666668 0
0.2800000012 -0.0466666668 0
0.2666666804 -0.0466666668 0
0.25333333 -0.0466666668 0
0.2399999948 -0.0466666668 0
0.226666674 -0.0466666668 0
0.2133333384 -0.0466666668 0
0.2000000028 -0.0466666668 0
0.1866666676 -0.0466666668 0
0.173333332 -0.0466666668 0
0.1599999964 -0.0466666668 0
0.1466666608 -0.0466666668 0
0.1333333404 -0.0466666668 0
0.1199999972 -0.0466666668 0
0.1066666692 -0.0466666668 0
0.0933333336 -0.0466666668 0
0.0799999984 -0.0466666668 0
0.06666667 -0.0466666668 0
0.0533333348 -0.0466666668 0
0.03999999912 -0.0466666668 0
0.02666666732 -0.0466666668 0
0.01333333364 -0.0466666668 0
0.0 -0.0466666668 0
0.400000004 -0.0599999988 0
0.3866666556 -0.0599999988 0
0.3733333348 -0.0599999988 0
0.3600000144 -0.0599999988 0
0.346666664 -0.0599999988 0
0.3333333432 -0.0599999988 0
0.3199999928 -0.0599999988 0
0.3066666724 -0.0599999988 0
0.293333322 -0.0599999988 0
0.2800000012 -0.0599999988 0
0.2666666804 -0.0599999988 0
0.25333333 -0.0599999988 0
0.2399999948 -0.0599999988 0
0.226666674 -0.0599999988 0
0.2133333384 -0.0599999988 0
0.2000000028 -0.0599999988 0
0.1866666676 -0.0599999988 0
0.173333332 -0.0599999988 0
0.1599999964 -0.0599999988 0
0.1466666608 -0.0599999988 0
0.1333333404 -0.0599999988 0
0.1199999972 -0.0599999988 0
0.1066666692 -0.0599999988 0
0.0933333336 -0.0599999988 0
0.0799999984 -0.0599999988 0
0.06666667 -0.0599999988 0
0.0533333348 -0.0599999988 0
0.03999999912 -0.0599999988 0
0.02666666732 -0.0599999988 0
0.01333333364 -0.0599999988 0
0.0 -0.0599999988 0
0.400000004 -0.0733333304 0
0.3866666556 -0.0733333304 0
0.3733333348 -0.0733333304 0
0.3600000144 -0.0733333304 0
0.346666664 -0.0733333304 0
0.3333333432 -0.0733333304 0
0.3199999928 -0.0733333304 0
0.3066666724 -0.0733333304 0
0.293333322 -0.0733333304 0
0.2800000012 -0.0733333304 0
0.2666666804 -0.0733333304 0
0.25333333 -0.0733333304 0
0.2399999948 -0.0733333304 0
0.226666674 -0.0733333304 0
0.2133333384 -0.0733333304 0
0.2000000028 -0.0733333304 0
0.1866666676 -0.0733333304 0
0.173333332 -0.0733333304 0
0.1599999964 -0.0733333304 0
0.1466666608 -0.0733333304 0
0.1333333404 -0.0733333304 0
0.1199999972 -0.0733333304 0
0.1066666692 -0.0733333304 0
0.0933333336 -0.0733333304 0
0.0799999984 -0.0733333304 0
0.06666667 -0.0733333304 0
0.0533333348 -0.0733333304 0
0.03999999912 -0.0733333304 0
0.02666666732 -0.0733333304 0
0.01333333364 -0.0733333304 0
0.0 -0.0733333304 0
0.400000004 -0.086666666 0
0.3866666556 -0.086666666 0
0.3733333348 -0.086666666 0
0.3600000144 -0.086666666 0
0.346666664 -0.086666666 0
0.3333333432 -0.086666666 0
0.3199999928 -0.086666666 0
0.3066666724 -0.086666666 0
0.293333322 -0.086666666 0
0.2800000012 -0.086666666 0
0.2666666804 -0.086666666 0
0.25333333 -0.086666666 0
0.2399999948 -0.086666666 0
0.226666674 -0.086666666 0
0.2133333384 -0.086666666 0
0.2000000028 -0.086666666 0
0.1866666676 -0.086666666 0
0.173333332 -0.086666666 0
0.1599999964 -0.086666666 0
0.1466666608 -0.086666666 0
0.1333333404 -0.086666666 0
0.1199999972 -0.086666666 0
0.1066666692 -0.086666666 0
0.0933333336 -0.086666666 0
0.0799999984 -0.086666666 0
0.06666667 -0.086666666 0
0.0533333348 -0.086666666 0
0.03999999912 -0.086666666 0
0.02666666732 -0.086666666 0
0.01333333364 -0.086666666 0
0.0 -0.086666666 0
0.400000004 -0.1000000016 0
0.3866666556 -0.1000000016 0
0.3733333348 -0.1000000016 0
0.3600000144 -0.1000000016 0
0.346666664 -0.1000000016 0
0.3333333432 -0.1000000016 0
0.3199999928 -0.1000000016 0
0.3066666724 -0.1000000016 0
0.293333322 -0.1000000016 0
0.2800000012 -0.1000000016 0
0.2666666804 -0.1000000016 0
0.25333333 -0.1000000016 0
0.2399999948 -0.1000000016 0
0.226666674 -0.1000000016 0
0.2133333384 -0.1000000016 0
0.2000000028 -0.1000000016 0
0.1866666676 -0.1000000016 0
0.173333332 -0.1000000016 0
0.1599999964 -0.1000000016 0
0.1466666608 -0.1000000016 0
0.1333333404 -0.1000000016 0
0.1199999972 -0.1000000016 0
0.1066666692 -0.1000000016 0
0.0933333336 -0.1000000016 0
0.0799999984 -0.1000000016 0
0.06666667 -0.1000000016 0
0.0533333348 -0.1000000016 0
0.03999999912 -0.1000000016 0
0.02666666732 -0.1000000016 0
0.01333333364 -0.1000000016 0
0.0 -0.1000000016 0
0.400000004 -0.1133333372 0
0.3866666556 -0.1133333372 0
0.3733333348 -0.1133333372 0
0.3600000144 -0.1133333372 0
0.346666664 -0.1133333372 0
0.3333333432 -0.1133333372 0
0.3199999928 -0.1133333372 0
0.3066666724 -0.1133333372 0
0.293333322 -0.1133333372 0
0.2800000012 -0.1133333372 0
0.2666666804 -0.1133333372 0
0.25333333 -0.1133333372 0
0.2399999948 -0.1133333372 0
0.226666674 -0.1133333372 0
0.2133333384 -0.1133333372 0
0.2000000028 -0.1133333372 0
0.1866666676 -0.1133333372 0
0.173333332 -0.1133333372 0
0.1599999964 -0.1133333372 0
0.1466666608 -0.1133333372 0
0.1333333404 -0.1133333372 0
0.1199999972 -0.1133333372 0
0.1066666692 -0.1133333372 0
0.0933333336 -0.1133333372 0
0.0799999984 -0.1133333372 0
0.06666667 -0.1133333372 0
0.0533333348 -0.1133333372 0
0.03999999912 -0.1133333372 0
0.02666666732 -0.1133333372 0
0.01333333364 -0.1133333372 0
0.0 -0.1133333372 0
0.400000004 -0.1266666652 0
0.3866666556 -0.1266666652 0
0.3733333348 -0.1266666652 0
[...]
POINT_DATA 961
SCALARS Temp float 1
LOOKUP_TABLE default
0.7684900720000281
0.7991961510495968
0.8212581117368928
0.8373245594439586
0.8491202202883658
0.8578278645283411
0.864289690615212
0.8691120570648723
0.8727364946686339
0.875486727159826
0.8776029893438924
0.8792658181961859
0.8806134101891502
0.8817551328104
0.8827816036107505
0.8837726842280055
0.8848048030224026
0.8859576852441586
0.8873214241341976
0.8890045712714905
0.8911439900390703
0.8939178315948273
0.8975620715867415
0.9023940153043886
0.9088438493532758
0.917499426659633
0.9291700791467843
0.9449799897613358
0.9665104867728016
0.9960562453033935
1.0372605620866164
0.8109576203750328
0.841065582443066
0.8628909203229524
0.8788694863412307
0.8906246853378095
0.8993156599923291
0.9057724155220613
0.9105955030799423
0.9142234162299618
0.9169782958639408
0.9190995617785901
0.9207673651698541
0.9221197632128009
0.9232661161753891
0.924297107774001
0.9252927089458602
0.9263294729206311
0.9274872488307915
0.9288562332384979
0.9305450317866308
0.9326904672812976
0.9354704689035929
0.9391204779160564
0.9439566888941219
0.9504071459556669
0.9590556296370925
0.9707036568517018
0.9864592736810943
1.0078701869321756
1.0371152221204687
1.0773482105694103
2.799106633461
2.803587904231451
2.8160776399511858
2.8276139563269447
2.8371718206373044
2.8447950033667952
2.850782420526695
2.8554576323743985
2.8591079988027106
2.861972259033988
2.864243769123449
2.866078186432601
2.867601819671261
2.86891944749919
2.8701212789325092
2.871289177778796
2.8725024527293153
2.8738435353799603
2.8754038527745456
2.8772902588534652
2.8796323828161516
2.882591135994284
2.8863685173286835
2.8912183248735337
2.897456069176435
2.9054629165683434
2.91566879994559
2.928470452468021
2.943923178081617
2.9606419923041134
2.9666441881832633
4.76226531363657
4.764713494964372
4.770725916388462
4.7782461168261054
4.78538907917145
4.791596508141893
4.796776056785216
4.801012253885689
4.804446347284595
4.807227621684046
4.809494799699258
4.811370444893857
4.812961145922114
4.814360192896951
4.815651223652953
4.816912229157877
4.818219704216938
4.81965287857833
4.821298060930036
4.823253104814765
4.8256318971370336
4.828568549775259
4.832220354995601
4.836767603993278
4.842405730869755
4.849320013169142
4.85762022446534
4.8671793949947215
4.877246150254935
4.885295367762164
4.888572432715775
6.719475427841588
6.720780910038168
6.724310646320313
6.729094657260937
6.734197407301007
6.739002972661538
6.743256934522974
6.746898226712899
6.7499601622065
6.752516771195455
6.754655707939765
6.756465339036426
6.758029448551848
6.75942599292489
6.760727951102642
6.76200527302465
6.763327394928838
6.764765990589862
6.766397745090778
6.768306900582461
6.770587169262851
6.773342297204145
6.776683854567221
6.78072377175126
6.785556726785088
6.791223530224847
6.797639157607341
6.804459937463154
6.810858811743214
6.815581410894092
6.8173283019989555
8.673035158385336
8.673832065177484
8.676038168184707
8.679199866952523
8.682791952225784
8.68639507204406
8.689752659424563
8.692748366923576
8.695354596321904
8.697593622130034
8.699512948172684
8.701170972245988
8.702629362423128
8.70394957172764
8.705191788894131
8.706415306791797
8.70767966883526
8.709046128749137
8.710579066863371
8.712346964927368
8.714422387371947
8.716880130832278
8.719792113794357
8.723216862391928
8.727180045393059
8.73164120283805
8.736441609276559
8.741235212498701
8.745458533988394
8.748406920414523
8.749472194495958
10.624083554470133
10.624592505167369
10.626028093013433
10.628152516410044
10.630668379169363
10.633303833680781
10.635861426114518
10.638225051288345
10.640344129494933
10.642212264347473
10.643849883428164
10.645292204603845
10.64658175526343
10.647764199264705
10.648886347272391
10.649995545728778
10.651139859330721
10.652368570428461
10.653732598671876
10.655284406418344
10.65707683509444
10.659160119567073
10.661575960035684
10.664347270937572
10.667461856221069
10.670848952701759
10.674350598832206
10.677700320195374
10.680532503972215
10.682447765486046
10.683126995100634
12.573119619531859
12.573448622638855
12.574386965409964
12.575804770405636
12.577530417867983
12.579394177018255
12.581258912968984
12.58303210333328
12.584663356408903
12.586135066354386
12.587452173654302
12.588633732519174
12.589706947171525
12.590703405935457
12.59165694774884
12.592602641954088
12.593576437926458
12.594615081436089
12.595755943219572
12.597036375457371
12.598492136007284
12.600154319307705
12.602044071819293
12.60416444136529
12.606488931894702
12.608947637409484
12.611414688464938
12.613704829407126
12.615589537113388
12.616838101340036
12.617276070295054
14.52038957445314
14.520593769166563
14.521180491874157
14.522079481109898
14.523194682920824
14.524426181358958
14.525687763753698
14.526916156138777
14.528072516309392
14.529139003184817
14.530113569685799
14.531004912670547
14.531828488729532
14.532603756118704
14.533352442491857
14.534097564288778
14.534862917197138
14.535672753328019
14.536551385069851
14.537522435485736
14.53860741733563
14.539823291524584
14.541178621395566
14.542668136092177
14.544265869406743
14.545918084953941
14.547538656454432
14.549010997421338
14.550200441956239
14.550977736706427
14.551248419532394
16.46601267307747
16.46612077001315
16.466433197846403
16.466917376679984
16.46752779095423
16.468215549649607
16.46893661662442
16.469656805331176
16.470353377195778
16.471014135124555
16.471635318942035
16.472219257604483
16.47277234557922
16.473303537607084
16.473823326265276
16.474343096082595
16.47487472269543
16.475430267369845
16.47602162762572
16.476659994084184
16.477354950810515
16.478113057666757
16.47893576226982
16.47981664620577
16.48073823411349
16.48166912376585
16.48256276236729
16.483359549440106
16.48399353338012
16.48440341615171
16.484545361730973
18.410046203012037
18.410071185329056
18.410144746372087
18.4102629779206
18.41042011717915
18.41060943140947
18.41082409290987
18.411057857253333
18.41130548030315
18.411562872827965
18.41182707475597
18.41209611331268
18.4123688136528
18.412644606284527
18.41292334426818
18.41320513659025
18.41349019741557
18.413778697828782
18.414070610385334
18.414365534997184
18.41466249683006
18.414959715689825
18.415254349445455
18.415542249879696
18.415817775271744
18.41607375313538
18.41630169433288
18.41649234684494
18.416636610134066
18.416726704552357
18.41675735878185
18.518499173954453
18.518520294164137
18.51858270586672
18.518683707966044
18.518819242933272
18.51898443821023
18.51917417192464
18.51938354758199
18.51960822883654
18.519844610153925
18.52008986183548
18.520341877022275
18.52059916430632
18.52086071934099
18.52112588737544
18.521394226322116
18.521665375285465
18.52193892142902
18.522214261725892
18.522490454712653
18.522766059751618
18.523038969456305
18.52330624226373
18.523563970393454
18.523807213744465
18.524030059783875
18.52422586000917
18.524387675290736
18.52450891769136
18.52458410654351
18.524609596191173
18.626824611691326
18.626842870894336
18.62689697584106
18.626984997155837
18.627103992205924
18.627250346567436
18.627420146703713
18.62760951127946
18.62781484824599
18.628033009406764
18.628261361027302
18.628497778206263
18.628740589568803
18.6289884957008
18.62924046979108
18.62949565016296
18.62975323200708
18.63001235512476
18.63027198838355
18.630530810351747
18.63078708758939
18.6310385587445
18.631282331606393
18.631514822107363
18.631731753205734
18.631928250817296
18.632099059384814
18.63223888462747
18.632342843510695
18.63240696259055
18.632428638074988
18.735027947498654
18.735044049118837
18.73509186134645
18.735169962109936
18.73527615458691
18.735407688409065
18.73556150986891
18.735734494113295
18.735923638777358
18.736126192975256
18.736339731612745
18.736562172681463
18.736791753433245
18.73702698137635
18.737266564975986
18.737509332497282
18.737754146956885
18.737999816145336
18.738245000826343
18.73848812305891
18.73872727802124
18.738960157833716
18.739183992930155
18.73939553372277
18.73959108112249
18.73976658869809
18.73991784446747
18.74004072985223
18.7401315371058
18.74018730434439
18.74020611469341
18.843113194795794
18.84312765014591
18.84317064376936
18.843241094664066
18.843337314380648
18.843457153819237
18.843598174400388
18.84375781207305
18.843933522223523
18.844122883134443
18.844323664572443
18.844533854494262
18.84475165345731
18.84497544758677
18.84520376208265
18.84543520213219
18.845668388936723
18.84590189077424
18.846134153330627
18.846363432388202
18.846587732837836
18.84680476181241
18.847011899463702
18.84720620500255
18.847384460301846
18.84754326525664
18.84767918569558
18.847788948033454
18.84786966559416
18.84791906841494
18.84793570291771
18.95108331157928
18.951096504664516
18.951135793287094
18.951200329797445
18.951288777384857
18.951399409702752
18.951530230212477
18.95167908924074
18.95184379260337
18.952022183025814
18.95221219986146
18.952411908221254
18.952619503507808
18.952833298930855
18.95305169589941
18.953273142696226
18.953496088491413
18.95371893285581
18.953939975312856
18.95415736831207
18.95436907744801
18.95457285563697
18.954766232921294
18.954946535687384
18.95511093368729
18.95525652410236
18.955380450150134
18.95548004791887
18.955553010033217
18.955597546604448
18.955612521926465
19.055076010146543
19.05508818989958
19.05512449553033
19.05518424278608
19.05526634341167
19.055369374170457
19.05549166161302
19.05563136659656
19.055786566218103
19.055955317387127
19.05613570738834
19.056325882077683
19.05652405571793
19.056728507985483
19.056937566653588
19.057149580151478
19.05736288628054
19.05757577710968
19.057786464416512
19.05799304887512
19.058193496323817
19.058385626695408
19.058567115806348
19.05873552103771
19.05888832700935
19.059023017688094
19.059137171132935
19.059228571146527
19.05929532749613
19.059335990989794
19.059349649337605
19.151223852066423
19.151235160192513
19.15126889188259
19.151324480747846
19.15140101942171
19.151497308277065
19.15161191670634
19.1517432448669
19.151889586019237
19.152049176085328
19.152220235917852
19.152400997139015
19.152589714477646
19.152784668868428
19.152984158959576
19.153186484283847
19.15338992560168
19.153592722142143
19.153793049694258
19.153989002335788
19.154178580526118
19.15435969011812
19.154530151412978
19.15468772732744
19.154830165554092
19.15495525958718
19.155060924506007
19.15514528269306
19.15520675351339
19.155244137191193
19.15525668352565
19.239548689602398
19.239559229203934
19.239590685388375
19.239642578674584
19.239714136157595
19.239804326514516
19.239911905097212
19.240035459615868
19.240173458108526
19.240324287714962
19.240486289920668
19.24065778363899
19.240837078486138
19.241022481722595
19.241212296017686
19.241404810573002
19.241598290411567
19.24179096322696
19.24198100724257
19.2421665423823
19.24234562688108
19.242516263022466
19.242676410394196
19.242824014327475
19.242957043841997
19.243073543089565
19.24317169232878
19.243249874517012
19.243306743302295
19.24334128534305
19.243352870624307
19.32010740536772
19.320117254671203
19.320146662542527
19.320195215008752
19.320262241283977
19.32034683937003
19.32044790984508
19.320564190132075
19.32069429191484
19.32083673170777
19.320989960358492
19.32115238346132
19.321322374728222
19.3214982852887
19.32167844582945
19.321861163569505
19.322044718268028
19.32222735635615
19.32240728614141
19.322582675913317
19.322751656549052
19.32291233160387
19.323062792804762
19.32320114759513
19.323325552888416
19.32343425852016
19.323525656752565
19.323598334709782
19.323651126806094
19.32368316194719
19.323693901149777
19.392987757258005
19.39299697931449
19.393024522774304
19.393070024111484
19.393132891739885
19.393212325072493
19.393307340319947
19.393416796585868
19.393539425505253
19.39367385561099
19.393818637238233
19.393972260557163
19.39413316861175
19.39429976800109
19.39447043402517
19.394643511887065
19.394817317631414
19.39499013766396
19.39516022934371
19.395325824057803
19.395485133938177
19.395636364648006
19.39577773187713
19.395907487434275
19.396023949158824
19.396125537836884
19.3962108178462
19.396278539055853
19.39632767796592
19.396357474155106
19.396367458994256
19.458303060618594
19.45831171016417
19.458337549657173
19.458380255190548
19.45843929779145
19.458513957875912
19.458603345337583
19.458706419749696
19.45882201424641
19.458948855212796
19.459085583546212
19.459230770654784
19.459382930966985
19.45954053335367
19.459702008291334
19.459865752056338
19.46003013119768
19.460193485947656
19.460354134668115
19.460510380392133
19.46066052026936
19.46080285990942
19.460935730115995
19.46105751131837
19.46116666010838
19.46126174086771
19.461341459566505
19.46140469777362
19.461450545522638
19.46147833001063
19.461487637970215
19.516186331063178
19.516194459311954
19.5162187457112
19.516258897977984
19.516314437423187
19.516384710130698
19.516468902926526
19.516566059304903
19.51667509902869
19.516794834297187
19.516923988139027
19.517061208713702
19.517205081223658
19.517354139661048
19.517506875281466
19.517661742866792
19.517817167666866
19.517971551550264
19.518123280133565
19.51827073166785
19.518412288217863
19.51854635079368
19.518671355871927
19.518785798153605
19.51888825421153
19.518977409863243
19.519052088671025
19.519111280006676
19.519154165797236
19.51918014357402
19.519188844270204
19.56678265986868
19.566790317775094
19.566813201837387
19.566851045294346
19.566903410258146
19.56696969654562
19.56704915465163
19.567140898557934
19.567243922138438
19.567357112676177
19.567479267006007
19.56760910442295
19.567745277999055
19.567886386391702
19.568030983129475
19.5681775842654
19.568324676992738
19.568470727671727
19.568614190769864
19.568753519273855
19.568887176903736
19.569013653529854
19.56913148123414
19.569239255490672
19.569335656382155
19.56941947256717
19.569489625673636
19.569545193862353
19.569585434010527
19.56960980060366
19.569617960197338
19.610242925367693
19.610250165714017
19.610271804119222
19.610307594495854
19.610357132162758
19.61041986098459
19.610495084156753
19.610581974736725
19.610679589661068
19.610786881271288
19.610902711699993
19.611025864650035
19.611155056157216
19.611288946303564
19.611426148971773
19.611565240400804
19.611704768897507
19.611843264106408
19.611979247127678
19.61211124187342
19.612237787839703
19.61235745549821
19.612468861785942
19.612570689865375
19.612661708328112
19.612740792452314
19.612806945418427
19.612859318458227
19.612897229624114
19.612920179604178
19.61292786373496
19.646715597204835
19.646722475802928
19.64674303460791
19.64677704417962
19.64682412668161
19.64688376180157
19.646955295938707
19.64703795107463
19.647130837011428
19.647232961411053
19.64734324282201
19.647460521557583
19.64758356996759
19.647711103974725
19.64784179306978
19.647974269427596
19.64810713830516
19.64823898810381
19.648368401218924
19.648493965941665
19.64861428947931
19.64872801314822
19.64883382727253
19.648930489713763
19.64901684343873
19.64909183564482
19.64915453653261
19.649204156875065
19.649240064235826
19.649261796507517
19.649269072124746
19.676340416946775
19.67634699314554
19.67636664920413
19.676399168832056
19.676444195464683
19.67650123731302
19.676569675395648
19.676648771212015
19.676737677671774
19.676835448039654
19.676941047928914
19.677053365476965
19.67717122120312
19.677293379339506
19.677418557924874
19.67754543824948
19.677672675660627
19.677798910106493
19.677922777415148
19.6780429214814
19.678158007349104
19.678266736131892
19.678367859363487
19.67846019650522
19.678542651220102
19.67861422885423
19.67867405336156
19.678721382949806
19.67875562441454
19.678776345009634
19.678783281349283
19.699241536026022
19.69924787269657
19.699266813546444
19.699298152269407
19.699341548491603
19.699396532214493
19.699462511032845
19.699538776966836
19.699624516456147
19.699718818522914
19.699820686006525
19.699929045213235
19.700042755444336
19.700160620132678
19.70028139695512
19.700403807457068
19.700526548083907
19.700648301001042
19.7007677456068
19.700883570846496
19.700994488261
19.701099246632047
19.701196645869878
19.70128555371758
19.701364921045574
19.701433798112276
19.70149135013767
19.7015368715589
19.70156979901259
19.70158972201644
19.70159639094117
19.71552173847937
19.715527901606155
19.715546324196577
19.71557680696508
19.71561902094289
19.715672511522193
19.715736705134027
19.715810915524425
19.715894353121083
19.71598613267256
19.716085283963622
19.716190761099188
19.71630145179378
19.716416188350767
19.7165337577591
19.716652911406882
19.71677237622737
19.71689086566575
19.717007091307956
19.717119775237087
19.717227663016246
19.717329538105105
19.717424235398727
19.717510657354694
19.717587788601477
19.717654711356126
19.717710620075525
19.71775483477133
19.71778681308262
19.717806160161473
19.717812636024366
19.725258086412182
19.725264144394103
19.72528225295901
19.725312216994688
19.72535371431977
19.72540629950149
19.725469410225344
19.72554237325412
19.725624413433977
19.725714661032143
19.72581216214929
19.72591588778792
19.726024742997
19.726137577750276
19.726253197021766
19.726370370537854
19.72648784397378
19.72660434998885
19.72671861990496
19.7268293960698
19.72693544478398
19.727035570568273
19.727128629486103
19.727213544923043
19.72728932178871
19.727355061439738
19.727409975793982
19.7274534001007
19.727484804488533
19.727503803393358
19.727510162553806
19.728498154691124
19.72850417745145
19.728522180819112
19.728551971067013
19.728593228267744
19.728645510038007
19.72870825780791
19.7287808026772
19.728862374303368
19.7289521081412
19.72904905575544
19.729152193817843
19.729260433203503
19.72937262983423
19.729487594745194
19.729604103847326
19.729720909137693
19.729836749754327
19.729950363668024
19.730060500044775
19.73016593215177
19.730265471572714
19.73035798145728
19.730442392184372
19.730517715429357
19.730583058924093
19.730637640394598
19.73068080015283
19.73071201247324
19.730730894871144
19.730737214982355
