# vtk DataFile Version 2.0
Unstructured Grid Example
ASCII
DATASET UNSTRUCTURED_GRID

POINTS 961 float
0.400000004 0.01999999956 0
0.3866666556 0.01999999956 0
0.3733333348 0.01999999956 0
0.3600000144 0.01999999956 0
0.346666664 0.01999999956 0
0.3333333432 0.01999999956 0
0.3199999928 0.01999999956 0
0.3066666724 0.01999999956 0
0.293333322 0.01999999956 0
0.2800000012 0.01999999956 0
0.2666666804 0.01999999956 0
0.25333333 0.01999999956 0
0.2399999948 0.01999999956 0
0.226666674 0.01999999956 0
0.2133333384 0.01999999956 0
0.2000000028 0.01999999956 0
0.1866666676 0.01999999956 0
0.173333332 0.01999999956 0
0.1599999964 0.01999999956 0
0.1466666608 0.01999999956 0
0.1333333404 0.01999999956 0
0.1199999972 0.01999999956 0
0.1066666692 0.01999999956 0
0.0933333336 0.01999999956 0
0.0799999984 0.01999999956 0
0.06666667 0.01999999956 0
0.0533333348 0.01999999956 0
0.03999999912 0.01999999956 0
0.02666666732 0.01999999956 0
0.01333333364 0.01999999956 0
0.0 0.01999999956 0
0.400000004 0.00666666684 0
0.3866666556 0.00666666684 0
0.3733333348 0.00666666684 0
0.3600000144 0.00666666684 0
0.346666664 0.00666666684 0
0.3333333432 0.00666666684 0
0.3199999928 0.00666666684 0
0.3066666724 0.00666666684 0
0.293333322 0.00666666684 0
0.2800000012 0.00666666684 0
0.2666666804 0.00666666684 0
0.25333333 0.00666666684 0
0.2399999948 0.00666666684 0
0.226666674 0.00666666684 0
0.2133333384 0.00666666684 0
0.2000000028 0.00666666684 0
0.1866666676 0.00666666684 0
0.173333332 0.00666666684 0
0.1599999964 0.00666666684 0
0.1466666608 0.00666666684 0
0.1333333404 0.00666666684 0
0.1199999972 0.00666666684 0
0.1066666692 0.00666666684 0
0.0933333336 0.00666666684 0
0.0799999984 0.00666666684 0
0.06666667 0.00666666684 0
0.0533333348 0.00666666684 0
0.03999999912 0.00666666684 0
0.02666666732 0.00666666684 0
0.01333333364 0.00666666684 0
0.0 0.00666666684 0
0.400000004 -0.00666666684 0
0.3866666556 -0.00666666684 0
0.3733333348 -0.00666666684 0
0.3600000144 -0.00666666684 0
0.346666664 -0.00666666684 0
0.3333333432 -0.00666666684 0
0.3199999928 -0.00666666684 0
0.3066666724 -0.00666666684 0
0.293333322 -0.00666666684 0
0.2800000012 -0.00666666684 0
0.2666666804 -0.00666666684 0
0.25333333 -0.00666666684 0
0.2399999948 -0.00666666684 0
0.226666674 -0.00666666684 0
0.2133333384 -0.00666666684 0
0.2000000028 -0.00666666684 0
0.1866666676 -0.00666666684 0
0.173333332 -0.00666666684 0
0.1599999964 -0.00666666684 0
0.1466666608 -0.00666666684 0
0.1333333404 -0.00666666684 0
0.1199999972 -0.00666666684 0
0.1066666692 -0.00666666684 0
0.0933333336 -0.00666666684 0
0.0799999984 -0.00666666684 0
0.06666667 -0.00666666684 0
0.0533333348 -0.00666666684 0
0.03999999912 -0.00666666684 0
0.02666666732 -0.00666666684 0
0.01333333364 -0.00666666684 0
0.0 -0.00666666684 0
0.400000004 -0.01999999956 0
0.3866666556 -0.01999999956 0
0.3733333348 -0.01999999956 0
0.3600000144 -0.01999999956 0
0.346666664 -0.01999999956 0
0.3333333432 -0.01999999956 0
0.3199999928 -0.01999999956 0
0.3066666724 -0.01999999956 0
0.293333322 -0.01999999956 0
0.2800000012 -0.01999999956 0
0.2666666804 -0.01999999956 0
0.25333333 -0.01999999956 0
0.2399999948 -0.01999999956 0
0.226666674 -0.01999999956 0
0.2133333384 -0.01999999956 0
0.2000000028 -0.01999999956 0
0.1866666676 -0.01999999956 0
0.173333332 -0.01999999956 0
0.1599999964 -0.01999999956 0
0.1466666608 -0.01999999956 0
0.1333333404 -0.01999999956 0
0.1199999972 -0.01999999956 0
0.1066666692 -0.01999999956 0
0.0933333336 -0.01999999956 0
0.0799999984 -0.01999999956 0
0.06666667 -0.01999999956 0
0.0533333348 -0.01999999956 0
0.03999999912 -0.01999999956 0
0.02666666732 -0.01999999956 0
0.01333333364 -0.01999999956 0
0.0 -0.01999999956 0
0.400000004 -0.03333333508 0
0.3866666556 -0.03333333508 0
0.3733333348 -0.03333333508 0
0.3600000144 -0.03333333508 0
0.346666664 -0.03333333508 0
0.3333333432 -0.03333333508 0
0.3199999928 -0.03333333508 0
0.3066666724 -0.03333333508 0
0.293333322 -0.03333333508 0
0.2800000012 -0.03333333508 0
0.2666666804 -0.03333333508 0
0.25333333 -0.03333333508 0
0.2399999948 -0.03333333508 0
0.226666674 -0.03333333508 0
0.2133333384 -0.03333333508 0
0.2000000028 -0.03333333508 0
0.1866666676 -0.03333333508 0
0.173333332 -0.03333333508 0
0.1599999964 -0.03333333508 0
0.1466666608 -0.03333333508 0
0.1333333404 -0.03333333508 0
0.1199999972 -0.03333333508 0
0.1066666692 -0.03333333508 0
0.0933333336 -0.03333333508 0
0.0799999984 -0.03333333508 0
0.06666667 -0.03333333508 0
0.0533333348 -0.03333333508 0
0.03999999912 -0.03333333508 0
0.02666666732 -0.03333333508 0
0.01333333364 -0.03333333508 0
0.0 -0.03333333508 0
0.400000004 -0.0466666668 0
0.3866666556 -0.0466666668 0
0.3733333348 -0.0466666668 0
0.3600000144 -0.0466666668 0
0.346666664 -0.0466666668 0
0.3333333432 -0.0466666668 0
0.3199999928 -0.0466666668 0
0.3066666724 -0.0466666668 0
0.293333322 -0.0466666668 0
0.2800000012 -0.0466666668 0
0.2666666804 -0.0466666668 0
0.25333333 -0.0466666668 0
0.2399999948 -0.0466666668 0
0.226666674 -0.0466666668 0
0.2133333384 -0.0466666668 0
0.2000000028 -0.0466666668 0
0.1866666676 -0.0466666668 0
0.173333332 -0.0466666668 0
0.1599999964 -0.0466666668 0
0.1466666608 -0.0466666668 0
0.1333333404 -0.0466666668 0
0.1199999972 -0.0466666668 0
0.1066666692 -0.0466666668 0
0.0933333336 -0.0466666668 0
0.0799999984 -0.0466666668 0
0.06666667 -0.0466666668 0
0.0533333348 -0.0466666668 0
0.03999999912 -0.0466666668 0
0.02666666732 -0.0466666668 0
0.01333333364 -0.0466666668 0
0.0 -0.0466666668 0
0.400000004 -0.0599999988 0
0.3866666556 -0.0599999988 0
0.3733333348 -0.0599999988 0
0.3600000144 -0.0599999988 0
0.346666664 -0.0599999988 0
0.3333333432 -0.0599999988 0
0.3199999928 -0.0599999988 0
0.3066666724 -0.0599999988 0
0.293333322 -0.0599999988 0
0.2800000012 -0.0599999988 0
0.2666666804 -0.0599999988 0
0.25333333 -0.0599999988 0
0.2399999948 -0.0599999988 0
0.226666674 -0.0599999988 0
0.2133333384 -0.0599999988 0
0.2000000028 -0.0599999988 0
0.1866666676 -0.0599999988 0
0.173333332 -0.0599999988 0
0.1599999964 -0.0599999988 0
0.1466666608 -0.0599999988 0
0.1333333404 -0.0599999988 0
0.1199999972 -0.0599999988 0
0.1066666692 -0.0599999988 0
0.0933333336 -0.0599999988 0
0.0799999984 -0.0599999988 0
0.06666667 -0.0599999988 0
0.0533333348 -0.0599999988 0
0.03999999912 -0.0599999988 0
0.02666666732 -0.0599999988 0
0.01333333364 -0.0599999988 0
0.0 -0.0599999988 0
0.400000004 -0.0733333304 0
0.3866666556 -0.0733333304 0
0.3733333348 -0.0733333304 0
0.3600000144 -0.0733333304 0
0.346666664 -0.0733333304 0
0.3333333432 -0.0733333304 0
0.3199999928 -0.0733333304 0
0.3066666724 -0.0733333304 0
0.293333322 -0.0733333304 0
0.2800000012 -0.0733333304 0
0.2666666804 -0.0733333304 0
0.25333333 -0.0733333304 0
0.2399999948 -0.0733333304 0
0.226666674 -0.0733333304 0
0.2133333384 -0.0733333304 0
0.2000000028 -0.0733333304 0
0.1866666676 -0.0733333304 0
0.173333332 -0.0733333304 0
0.1599999964 -0.0733333304 0
0.1466666608 -0.0733333304 0
0.1333333404 -0.0733333304 0
0.1199999972 -0.0733333304 0
0.1066666692 -0.0733333304 0
0.0933333336 -0.0733333304 0
0.0799999984 -0.0733333304 0
0.06666667 -0.0733333304 0
0.0533333348 -0.0733333304 0
0.03999999912 -0.0733333304 0
0.02666666732 -0.0733333304 0
0.01333333364 -0.0733333304 0
0.0 -0.0733333304 0
0.400000004 -0.086666666 0
0.3866666556 -0.086666666 0
0.3733333348 -0.086666666 0
0.3600000144 -0.086666666 0
0.346666664 -0.086666666 0
0.3333333432 -0.086666666 0
0.3199999928 -0.086666666 0
0.3066666724 -0.086666666 0
0.293333322 -0.086666666 0
0.2800000012 -0.086666666 0
0.2666666804 -0.086666666 0
0.25333333 -0.086666666 0
0.2399999948 -0.086666666 0
0.226666674 -0.086666666 0
0.2133333384 -0.086666666 0
0.2000000028 -0.086666666 0
0.1866666676 -0.086666666 0
0.173333332 -0.086666666 0
0.1599999964 -0.086666666 0
0.1466666608 -0.086666666 0
0.1333333404 -0.086666666 0
0.1199999972 -0.086666666 0
0.1066666692 -0.086666666 0
0.0933333336 -0.086666666 0
0.0799999984 -0.086666666 0
0.06666667 -0.086666666 0
0.0533333348 -0.086666666 0
0.03999999912 -0.086666666 0
0.02666666732 -0.086666666 0
0.01333333364 -0.086666666 0
0.0 -0.086666666 0
0.400000004 -0.1000000016 0
0.3866666556 -0.1000000016 0
0.3733333348 -0.1000000016 0
0.3600000144 -0.1000000016 0
0.346666664 -0.1000000016 0
0.3333333432 -0.1000000016 0
0.3199999928 -0.1000000016 0
0.3066666724 -0.1000000016 0
0.293333322 -0.1000000016 0
0.2800000012 -0.1000000016 0
0.2666666804 -0.1000000016 0
0.25333333 -0.1000000016 0
0.2399999948 -0.1000000016 0
0.226666674 -0.1000000016 0
0.2133333384 -0.1000000016 0
0.2000000028 -0.1000000016 0
0.1866666676 -0.1000000016 0
0.173333332 -0.1000000016 0
0.1599999964 -0.1000000016 0
0.1466666608 -0.1000000016 0
0.1333333404 -0.1000000016 0
0.1199999972 -0.1000000016 0
0.1066666692 -0.1000000016 0
0.0933333336 -0.1000000016 0
0.0799999984 -0.1000000016 0
0.06666667 -0.1000000016 0
0.0533333348 -0.1000000016 0
0.03999999912 -0.1000000016 0
0.02666666732 -0.1000000016 0
0.01333333364 -0.1000000016 0
0.0 -0.1000000016 0
0.400000004 -0.1133333372 0
0.3866666556 -0.1133333372 0
0.3733333348 -0.1133333372 0
0.3600000144 -0.1133333372 0
0.346666664 -0.1133333372 0
0.3333333432 -0.1133333372 0
0.3199999928 -0.1133333372 0
0.3066666724 -0.1133333372 0
0.293333322 -0.1133333372 0
0.2800000012 -0.1133333372 0
0.2666666804 -0.1133333372 0
0.25333333 -0.1133333372 0
0.2399999948 -0.1133333372 0
0.226666674 -0.1133333372 0
0.2133333384 -0.1133333372 0
0.2000000028 -0.1133333372 0
0.1866666676 -0.1133333372 0
0.173333332 -0.1133333372 0
0.1599999964 -0.1133333372 0
0.1466666608 -0.1133333372 0
0.1333333404 -0.1133333372 0
0.1199999972 -0.1133333372 0
0.1066666692 -0.1133333372 0
0.0933333336 -0.1133333372 0
0.0799999984 -0.1133333372 0
0.06666667 -0.1133333372 0
0.0533333348 -0.1133333372 0
0.03999999912 -0.1133333372 0
0.02666666732 -0.1133333372 0
0.01333333364 -0.1133333372 0
0.0 -0.1133333372 0
0.400000004 -0.1266666652 0
0.3866666556 -0.1266666652 0
0.3733333348 -0.1266666652 0
[...]
POINT_DATA 961
SCALARS Temp float 1
LOOKUP_TABLE default
0.761652687402318
0.7920766094273756
0.8139168644725336
0.8298035985076018
0.8414502754101381
0.8500318957909792
0.8563850332551541
0.8611118718571527
0.864650757265013
0.8673229213902288
0.8693665814801064
0.8709605837601666
0.8722416542809943
0.8733178259260906
0.8742784566778149
0.8752021769552322
0.8761641680131825
0.8772428525709419
0.8785269238764327
0.8801233871482997
0.8821673526885895
0.884834929342442
0.8883596582339816
0.8930558638798929
0.8993500014189526
0.9078251447633912
0.9192843697466271
0.9348434848580959
0.9560722956742216
0.9852489438189149
1.025987992926095
0.8038643448215463
0.8336967407854766
0.8553025139708541
0.8711023163651034
0.8827090294756051
0.891274243324604
0.8976224443422713
0.9023500625449086
0.9058924360138173
0.9085692308790521
0.9106178596703993
0.912216789220343
0.9135026103476608
0.9145833515242429
0.9155484390201194
0.9164766143180768
0.9174431852954377
0.9185267005387256
0.9198159591290461
0.9214180237903751
0.9234679691930112
0.9261416896807098
0.9296722034219675
0.9343727424182778
0.9406676489430071
0.949135974628046
0.960573069405405
0.9760787768144847
0.9971896568565723
1.0260689769581157
1.06584947812054
2.780133838704222
2.7845682259360327
2.796927095581411
2.8083304923685235
2.817765405430075
2.82527751508798
2.8311648023426574
2.8357491736300138
2.839316250729595
2.8421031444157667
2.844301730392039
2.8460663204243364
2.847521982365754
2.848772324582919
2.849906424611117
2.8510050249264722
2.852146295773394
2.853411486947249
2.8548907737592035
2.856689660175238
2.8589362962312226
2.8617899514616614
2.8654507885592873
2.8701705512537763
2.876262489172121
2.8841054076299195
2.8941271454633677
2.9067237116494313
2.9219545867115455
2.93845588447177
2.94438000613256
4.731711112804786
4.73413191197275
4.740074579748326
4.747502439018599
4.754549070826821
4.7606629238922125
4.765753940492509
4.7699070243842865
4.773262977371277
4.775970294755851
4.77816677690614
4.779974024662843
4.7814976595026675
4.782830008396068
4.784053746837319
4.785245895727208
4.786481960738524
4.78784015212742
4.789405718457844
4.791275405044358
4.7935619410184644
4.79639824070545
4.79994039386029
4.804367564294588
4.809874311660159
4.816645669098008
4.8247926073957945
4.834192614960865
4.8441062017680885
4.8520395519542845
4.855271148553121
6.67747307549101
6.6787623051533
6.68224707432166
6.686966963749276
6.691996020262518
6.6967251116556215
6.70090326907987
6.70447094601081
6.707461907525141
6.709950059585713
6.712022621854544
6.713767360526516
6.715267370270402
6.716599867802877
6.717837061011093
6.719048105898468
6.72030162471076
6.721668459236452
6.723224448854387
6.72505298668746
6.727246954804312
6.729909330477735
6.733151056396211
6.73708371856876
6.741802189677366
6.74734847066412
6.753640540876147
6.760340965089161
6.766634432728329
6.771282859570742
6.773002902911783
8.619699966793764
8.620485919847942
8.622661029133393
8.625776349694087
8.629312219032045
8.632853983096275
8.636148285365334
8.639080623122485
8.641624299363196
8.643801887283981
8.645660815996505
8.647259181268929
8.648658211484559
8.649918835498385
8.651100665495232
8.652262385246518
8.653462909571923
8.654762856064382
8.656225976237724
8.657920152982564
8.659917418837981
8.662292165714108
8.665116133960922
8.668448055954233
8.672314442886533
8.676676700766784
8.681379554748768
8.686082672971406
8.690230735150065
8.693128584685802
8.694175958776796
10.55952202824702
10.560023248664141
10.561436608418774
10.563526843217787
10.5659998159385
10.568586803393575
10.571092816899908
10.573403431510506
10.575469066994465
10.577283822358673
10.578868271566854
10.580257547084646
10.581493940616877
10.582622783914307
10.583690495152082
10.584743992736867
10.585830896164712
10.587000042771654
10.588301927754877
10.589788637823261
10.591512729747494
10.593524308203438
10.595865194276065
10.598558814543326
10.601594075653711
10.604902167529419
10.608328218587666
10.611610142400124
10.61438778056794
10.616267374308807
10.616934165805894
12.49743386835224
12.49775733920655
12.498679619553991
12.50007227412471
12.501765635851278
12.503591988666454
12.505415941905609
12.50714629377607
12.508733541053498
12.510160602963222
12.511432668971326
12.512568845832536
12.513596256354948
12.514546318667726
12.515452645363641
12.51635004735579
12.517274202379348
12.518261589481476
12.519349338396092
12.520574613536708
12.521973077210514
12.523575876010138
12.525404435453304
12.527462415108488
12.52972439742416
12.53212216680967
12.534532263875247
12.536772539976008
12.538618006149136
12.539841345718113
12.540270599432478
14.433678327165309
14.4338786597453
14.43445409179556
14.435335174223644
14.436426990408355
14.437630856358952
14.438861693301495
14.44005715078102
14.44117906464146
14.442210045125403
14.443148311290967
14.444002687266888
14.444788658686969
14.445525646299465
14.446235298032809
14.446940527254178
14.447665018565626
14.448432919903617
14.449268463287124
14.450195236893677
14.45123479367263
14.45240425012699
14.453712495280888
14.455154821815391
14.456706142047786
14.45831398135163
14.459893884511143
14.46133128135433
14.462493670930076
14.463253783835038
14.463518568579289
16.368371252639847
16.368476881291365
16.368782047176836
16.36925456773786
16.369849497461416
16.370518585855102
16.371218416135324
16.371915339669393
16.372587047846032
16.37322166641833
16.37381566586858
16.374371534222618
16.374895773376476
16.375397410321053
16.37588698806086
16.37637593054874
16.37687615081855
16.377399754359104
16.377958699632078
16.378564267291992
16.37922617690493
16.37995119077602
16.380741053904178
16.381589772607033
16.382480457211138
16.383382475997657
16.384250229476354
16.38502520596613
16.385642572427884
16.38604202195925
16.38618040734306
18.301566051015048
18.301589833318342
18.30165981912396
18.301772171813493
18.301921239449126
18.30210042925475
18.302303071962488
18.302523091395162
18.302755415056453
18.302996125438412
18.303242432621825
18.30349253250424
18.30374541835144
18.304000689227507
18.304258368495596
18.30451873859335
18.30478219145245
18.305049081504915
18.305319571509838
18.305593459767625
18.30586997942732
18.306147569128623
18.306423617726736
18.306694220349748
18.306953990086967
18.307196017175194
18.30741207596034
18.30759316709495
18.307730415916108
18.307816223244316
18.30784543489234
18.409419760816238
18.409439738975333
18.40949874434547
18.409594133569836
18.409721940112973
18.409877409202448
18.410055556346155
18.410251635781357
18.41046147001021
18.410681617287242
18.410909414480592
18.411142923360053
18.411380823287544
18.411622283090054
18.41186682427276
18.41211418496851
18.412364189179574
18.41261661445829
18.412871054426624
18.413126771232967
18.413382535417917
18.413636458564724
18.413885825898348
18.414126963030945
18.414355167606075
18.414564764794164
18.414749336899142
18.414902159205525
18.41501682999083
18.415088013867635
18.41511215789102
18.51715295098927
18.5171701062401
18.517220916005638
18.517303499825655
18.517414993189284
18.517551884712432
18.517710383772894
18.517886747259908
18.51807753243888
18.51827974869815
18.51849092587776
18.518709107516408
18.518932795099673
18.51916086622541
18.519392475427786
18.519626947136715
18.519863667696665
18.52010197348606
18.520341035656365
18.520579740897116
18.520816569640317
18.521049479568102
18.52127580177906
18.5214921776768
18.52169455489327
18.521878278615233
18.52203830092071
18.52216951576337
18.52226720001289
18.522327502731834
18.522347897304165
18.624770962356607
18.624785981589866
18.624830561348514
18.624903322876353
18.625002139210558
18.62512435340547
18.625267025053365
18.62542715905041
18.625601895785294
18.625788637687002
18.62598512130517
18.626189433296652
18.62639998584443
18.626615467023985
18.62683477131483
18.627056918506312
18.627280968571345
18.627505931682613
18.627730676272392
18.627953837000423
18.628173725933728
18.628388255162395
18.62859487664311
18.628790561184488
18.628971825648545
18.629134830539414
18.62927555616708
18.629390055118883
18.62947476267085
18.62952682503489
18.629544392780907
18.732277748260017
18.73229112833716
18.732330909624405
18.732396051012707
18.732484928840357
18.73259548149807
18.732725377760143
18.732872178111613
18.733033476760202
18.73320700296515
18.733390687490076
18.733582687934007
18.733781382213305
18.73398534066751
18.734193279120994
18.73440399959111
18.734616325957187
18.734829034715666
18.735040784835125
18.735250049707766
18.73545505508752
18.735653730554464
18.7358436783109
18.736022176165175
18.73618621761152
18.73633260269556
18.736458080746498
18.73655953940324
18.736634225127617
18.73667996761139
18.73669537502739
18.839676232910104
18.839688344645342
18.839724402043007
18.83978359549046
18.8398646502341
18.83996592427392
18.84008552537053
18.840221425882635
18.840371568844873
18.840533947479017
18.84070666286411
18.84088795167543
18.84107618970267
18.841269878370504
18.84146761453096
18.841668048767026
18.841869838864405
18.84207159881265
18.842271847643563
18.842468961390846
18.84266113191964
18.842846339091928
18.8430223382559
18.84318667612188
18.84333673409325
18.843469807845487
18.843583220993008
18.843674466777525
18.843741366602018
18.843782226356733
18.84379596941617
18.94331016727211
18.943321266919497
18.94335434456401
18.943408752578204
18.94348346263502
18.943577133286297
18.94368819271892
18.943814921361493
18.943955531522455
18.944108229227762
18.944271262829666
18.944442949838624
18.94462168571915
18.94480593984339
18.94499423749569
18.945185131967506
18.94537717262198
18.945568869147525
18.945758656130106
18.945944861041998
18.946125678908167
18.946299158997135
18.94646320407586
18.94661559256771
18.946754020436686
18.946876168829178
18.946979794041226
18.94706283433116
18.94712352542912
18.94716051145801
18.947172937526222
19.039508375057878
19.039518630427544
19.03954921553674
19.03959959874863
19.0396689296701
19.03975608664578
19.03985973628601
19.03997839355389
19.04011048204279
19.040254381976407
19.04040847065683
19.0405711470128
19.040740842926564
19.04091602528153
19.041095186763986
19.041276828521468
19.041459439793357
19.04164147443089
19.04182132802471
19.041997318326466
19.04216767162409
19.042330519405706
19.042483904788604
19.042625807126623
19.042754180407865
19.042867009936614
19.042962383561008
19.043038572865164
19.04309411851302
19.04312791035773
19.04313925322881
19.1282659499631
19.128275487608732
19.12830394881641
19.128350886507622
19.128415580969133
19.128497073811786
19.12859421153292
19.128705689760764
19.128830099387574
19.12896596396156
19.129111773269255
19.12926600523381
19.129427138248627
19.129593657117677
19.12976405013185
19.129936799673935
19.130110370783296
19.130283197256148
19.130453668506824
19.130620119395594
19.13078082509125
19.1309340044535
19.131077830674972
19.13121045623673
19.131330047214536
19.13143483058001
19.13152315088916
19.13159353267142
19.131644744440546
19.1316758575903
19.131686294070363
19.209598094519023
19.209607012521445
19.209633636441957
19.209677581930844
19.209738226874364
19.20981473609674
19.20990609381578
19.210011136667227
19.210128589502006
19.210257094748073
19.21039524042988
19.210541579527252
19.21069464250329
19.210852945692295
19.21101499280682
19.211179271426754
19.211344248315655
19.211508362824016
19.21167002111679
19.211827592964717
19.21197941264493
19.21212378675181
19.21225900717126
19.212383375304796
19.212495232380256
19.212592999021645
19.212675220773093
19.212740616664938
19.21278812800532
19.212816962475305
19.21282662936653
19.283537972360964
19.28354634934977
19.283571366507218
19.28361268680779
19.28366976223151
19.283741852054
19.283828047492477
19.283927296734134
19.284038433167385
19.28416019871103
19.284291267425385
19.28443026263495
19.284575769243006
19.284726343619504
19.28488051820046
19.285036802268127
19.28519368227006
19.28534962067161
19.28550305563967
19.28565240288543
19.285796060777535
19.285932420989774
19.28605988263264
19.286176875252643
19.286281885548178
19.286373490705028
19.286450395390695
19.286511470126264
19.286555789127178
19.28658266394647
19.286591670045524
19.35013392014703
19.350141821738788
19.35016542514341
19.350204429600517
19.350258344202178
19.350326501693704
19.350408077576724
19.350502109406836
19.35060751947267
19.350723133613318
19.350847701381937
19.35097991128683
19.351118402709016
19.351261776670118
19.35140860255778
19.351557421987113
19.351706752756378
19.351855091685465
19.352000918259336
19.352142700061094
19.352278900759664
19.35240799250206
19.352528470482845
19.352638874553616
19.352737812844357
19.35282399013665
19.352896238355243
19.352953547392623
19.35299509500672
19.3530202730032
19.35302870768938
19.409446528474795
19.409454011883817
19.40947637037536
19.40951333135525
19.409564448515738
19.409629112464543
19.409706565862955
19.409795918596483
19.409896166369002
19.410006206154808
19.410124853688593
19.41025085716448
19.410382908694793
19.4105196555541
19.410659708338276
19.410801647001236
19.41094402740319
19.411085387007805
19.411224251340833
19.411359141919874
19.411488586151414
19.41161113072911
19.411725356216163
19.411829897276334
19.411923463702788
19.412004864873428
19.412073035288575
19.4121270597863
19.412166197638207
19.412189903355564
19.412197842779356
19.461544192905905
19.461551310237503
19.46157257803542
19.461607745796815
19.461656402369748
19.461717984327105
19.461791788250693
19.46187698292026
19.46197262489589
19.462077671466155
19.46219099607591
19.46231140078375
19.46243762726445
19.46256836826999
19.462702276731008
19.462837973299944
19.462974054709367
19.463109101477663
19.46324168632595
19.463370383801404
19.46349378140024
19.463610493483564
19.463719175636406
19.46381854362431
19.463907392289702
19.46398461693384
19.464049235083053
19.46410040752388
19.464137458137863
19.46415989080598
19.46416740235822
19.50650016324372
19.50650696379909
19.506527287193247
19.506560900323763
19.506607419853605
19.50666631897524
19.50673693763429
19.50681849256175
19.50691009063638
19.507010739975584
19.507119363782394
19.507234811816907
19.507355870977907
19.507481276820588
19.507609723256426
19.507739871116737
19.5078703577458
19.50799980608642
19.508126834426694
19.50825006713958
19.508368146557597
19.508479747095308
19.50858358927076
19.50867845753619
19.508763217448347
19.508836834656023
19.50889839380263
19.508947116444972
19.508982377750907
19.509003720560393
19.509010866063335
19.544387618473483
19.54439415031997
19.544413672227392
19.54444596474562
19.544490666446038
19.544547279537507
19.544615178604428
19.544693619083965
19.544781748998574
19.54487861867869
19.544983193408868
19.545094364127912
19.54521095764202
19.54533174810689
19.545455467090882
19.54558081281173
19.54570646054988
19.545831072658654
19.54595330918954
19.546071839342375
19.546185353773154
19.546292578736583
19.546392289735522
19.546483328394107
19.546564618255207
19.546635181922852
19.546694157805188
19.54674081572034
19.54677457128982
19.54679499792968
19.546801835884906
19.57527651810542
19.57528282907551
19.575301691930754
19.575332897762692
19.575376102114312
19.575430829784455
19.575496482505052
19.57557234630913
19.57565760208158
19.575751334287744
19.57585254272276
19.57596015262132
19.576073024563684
19.576189965876978
19.576309740905845
19.576431080679935
19.57655269385486
19.576673277323867
19.576791527405128
19.57690615172582
19.57701588175734
19.57711948688032
19.577215787679197
19.57730367203273
19.57738210984678
19.577450168801516
19.577507029490654
19.577551999332744
19.577584525291023
19.577604204372395
19.577610791483423
19.59922960635455
19.599235744614205
19.59925409200046
19.599284447460807
19.599326479218607
19.599379729017514
19.59944361906021
19.59951745860543
19.59960045368542
19.599691715133012
19.5997902696827
19.599895069645612
19.60000500257336
19.600118902567395
19.600235560658792
19.60035373474032
19.600472160833874
19.60058956407893
19.60070467026486
19.600816217966553
19.600922971183547
19.60102373329083
19.601117360030194
19.601202774994018
19.60127898356539
19.6013450876466
19.601400299644855
19.601443955177526
19.601475524609576
19.601494622504646
19.601501014657
19.616299132659734
19.616305146949582
19.6163231242704
19.6163528690159
19.61639405821712
19.61644624542198
19.6165088671489
19.616581248978807
19.61666261471969
19.616752093968714
19.616848732774947
19.616951503015947
19.617059311887644
19.617171013132708
19.61728541747233
19.617401302691015
19.6175174250945
19.617632530720496
19.61774536707084
19.617854695382782
19.617959303305625
19.61805801874315
19.61814972261488
19.618233363908438
19.6183079730717
19.61837267604731
19.618426707481436
19.618469422623456
19.618500308077717
19.618518990561583
19.618525243394174
19.626524552244685
19.626530491878267
19.62654824631533
19.626577623156358
19.626618304625026
19.62666985124188
19.626731708003096
19.626803210186324
19.626883592200073
19.62697199488002
19.627067475898553
19.627169018966857
19.627275543219834
19.627385914390572
19.62749895526272
19.627613455833323
19.62772818486826
19.627841901228543
19.627953365703995
19.628061353349395
19.62816466616924
19.628262146885092
19.62835269155383
19.62843526436188
19.628508910695743
19.628572770773076
19.62862609240317
19.628668242424474
19.62869871700724
19.62871715001652
19.628723319192197
19.629930254453075
19.629936169152433
19.62995384914513
19.62998310309091
19.63002361492973
19.630074947489
19.630136548573166
19.630207756677123
19.6302878097329
19.630375852319812
19.63047094599099
19.630572078418055
19.630678172741096
19.63078809872415
19.63090068321276
19.63101472032068
19.631128983015042
19.63124223447815
19.631353239972224
19.63146077919426
19.631563658961333
19.631660726951107
19.63175088427187
19.631833100170653
19.631906424997673
19.631970003705312
19.632023088461857
19.63206504993841
19.632095387465448
19.632113737267474
19.632119878542902
