# vtk DataFile Version 2.0
Unstructured Grid Example
ASCII
DATASET UNSTRUCTURED_GRID

POINTS 961 float
0.150000006 -0.00839745998 0
0.146666661 -0.00839745998 0
0.143333331 -0.00839745998 0
0.140000001 -0.00839745998 0
0.13666667 -0.00839745998 0
0.13333334 -0.00839745998 0
0.129999995 -0.00839745998 0
0.126666665 -0.00839745998 0
0.123333335 -0.00839745998 0
0.119999997 -0.00839745998 0
0.116666667 -0.00839745998 0
0.113333337 -0.00839745998 0
0.109999999 -0.00839745998 0
0.106666669 -0.00839745998 0
0.103333332 -0.00839745998 0
0.100000001 -0.00839745998 0
0.0966666639 -0.00839745998 0
0.0933333337 -0.00839745998 0
0.0900000036 -0.00839745998 0
0.086666666 -0.00839745998 0
0.0833333358 -0.00839745998 0
0.0799999982 -0.00839745998 0
0.0766666681 -0.00839745998 0
0.0733333305 -0.00839745998 0
0.0700000003 -0.00839745998 0
0.0666666701 -0.00839745998 0
0.0633333325 -0.00839745998 0
0.0599999987 -0.00839745998 0
0.0566666685 -0.00839745998 0
0.0533333346 -0.00839745998 0
0.0500000007 -0.00839745998 0
0.148333326 -0.0112842107 0
0.144999996 -0.0112842107 0
0.141666666 -0.0112842107 0
0.138333336 -0.0112842107 0
0.135000005 -0.0112842107 0
0.13166666 -0.0112842107 0
0.12833333 -0.0112842107 0
0.125 -0.0112842107 0
0.12166667 -0.0112842107 0
0.118333332 -0.0112842107 0
0.115000002 -0.0112842107 0
0.111666664 -0.0112842107 0
0.108333334 -0.0112842107 0
0.104999997 -0.0112842107 0
0.101666667 -0.0112842107 0
0.0983333364 -0.0112842107 0
0.0949999988 -0.0112842107 0
0.0916666687 -0.0112842107 0
0.088333331 -0.0112842107 0
0.0850000009 -0.0112842107 0
0.0816666633 -0.0112842107 0
0.0783333331 -0.0112842107 0
0.075000003 -0.0112842107 0
0.0716666654 -0.0112842107 0
0.0683333352 -0.0112842107 0
0.0649999976 -0.0112842107 0
0.0616666675 -0.0112842107 0
0.0583333336 -0.0112842107 0
0.0549999997 -0.0112842107 0
0.0516666658 -0.0112842107 0
0.0483333319 -0.0112842107 0
0.146666661 -0.0141709624 0
0.143333331 -0.0141709624 0
0.140000001 -0.0141709624 0
0.13666667 -0.0141709624 0
0.13333334 -0.0141709624 0
0.129999995 -0.0141709624 0
0.126666665 -0.0141709624 0
0.123333335 -0.0141709624 0
0.119999997 -0.0141709624 0
0.116666667 -0.0141709624 0
0.113333337 -0.0141709624 0
0.109999999 -0.0141709624 0
0.106666669 -0.0141709624 0
0.103333332 -0.0141709624 0
0.100000001 -0.0141709624 0
0.0966666639 -0.0141709624 0
0.0933333337 -0.0141709624 0
0.0900000036 -0.0141709624 0
0.086666666 -0.0141709624 0
0.0833333358 -0.0141709624 0
0.0799999982 -0.0141709624 0
0.0766666681 -0.0141709624 0
0.0733333305 -0.0141709624 0
0.0700000003 -0.0141709624 0
0.0666666701 -0.0141709624 0
0.0633333325 -0.0141709624 0
0.0599999987 -0.0141709624 0
0.0566666685 -0.0141709624 0
0.0533333346 -0.0141709624 0
0.0500000007 -0.0141709624 0
0.0466666669 -0.0141709624 0
0.144999996 -0.0170577131 0
0.141666666 -0.0170577131 0
0.138333336 -0.0170577131 0
0.135000005 -0.0170577131 0
0.13166666 -0.0170577131 0
0.12833333 -0.0170577131 0
0.125 -0.0170577131 0
0.12166667 -0.0170577131 0
0.118333332 -0.0170577131 0
0.115000002 -0.0170577131 0
0.111666664 -0.0170577131 0
0.108333334 -0.0170577131 0
0.104999997 -0.0170577131 0
0.101666667 -0.0170577131 0
0.0983333364 -0.0170577131 0
0.0949999988 -0.0170577131 0
0.0916666687 -0.0170577131 0
0.088333331 -0.0170577131 0
0.0850000009 -0.0170577131 0
0.0816666633 -0.0170577131 0
0.0783333331 -0.0170577131 0
0.075000003 -0.0170577131 0
0.0716666654 -0.0170577131 0
0.0683333352 -0.0170577131 0
0.0649999976 -0.0170577131 0
0.0616666675 -0.0170577131 0
0.0583333336 -0.0170577131 0
0.0549999997 -0.0170577131 0
0.0516666658 -0.0170577131 0
0.0483333319 -0.0170577131 0
0.0450000018 -0.0170577131 0
0.143333331 -0.0199444648 0
0.140000001 -0.0199444648 0
0.13666667 -0.0199444648 0
0.13333334 -0.0199444648 0
0.129999995 -0.0199444648 0
0.126666665 -0.0199444648 0
0.123333335 -0.0199444648 0
0.119999997 -0.0199444648 0
0.116666667 -0.0199444648 0
0.113333337 -0.0199444648 0
0.109999999 -0.0199444648 0
0.106666669 -0.0199444648 0
0.103333332 -0.0199444648 0
0.100000001 -0.0199444648 0
0.0966666639 -0.0199444648 0
0.0933333337 -0.0199444648 0
0.0900000036 -0.0199444648 0
0.086666666 -0.0199444648 0
0.0833333358 -0.0199444648 0
0.0799999982 -0.0199444648 0
0.0766666681 -0.0199444648 0
0.0733333305 -0.0199444648 0
0.0700000003 -0.0199444648 0
0.0666666701 -0.0199444648 0
0.0633333325 -0.0199444648 0
0.0599999987 -0.0199444648 0
0.0566666685 -0.0199444648 0
0.0533333346 -0.0199444648 0
0.0500000007 -0.0199444648 0
0.0466666669 -0.0199444648 0
0.043333333 -0.0199444648 0
0.141666666 -0.0228312165 0
0.138333336 -0.0228312165 0
0.135000005 -0.0228312165 0
0.13166666 -0.0228312165 0
0.12833333 -0.0228312165 0
0.125 -0.0228312165 0
0.12166667 -0.0228312165 0
0.118333332 -0.0228312165 0
0.115000002 -0.0228312165 0
0.111666664 -0.0228312165 0
0.108333334 -0.0228312165 0
0.104999997 -0.0228312165 0
0.101666667 -0.0228312165 0
0.0983333364 -0.0228312165 0
0.0949999988 -0.0228312165 0
0.0916666687 -0.0228312165 0
0.088333331 -0.0228312165 0
0.0850000009 -0.0228312165 0
0.0816666633 -0.0228312165 0
0.0783333331 -0.0228312165 0
0.075000003 -0.0228312165 0
0.0716666654 -0.0228312165 0
0.0683333352 -0.0228312165 0
0.0649999976 -0.0228312165 0
0.0616666675 -0.0228312165 0
0.0583333336 -0.0228312165 0
0.0549999997 -0.0228312165 0
0.0516666658 -0.0228312165 0
0.0483333319 -0.0228312165 0
0.0450000018 -0.0228312165 0
0.0416666679 -0.0228312165 0
0.140000001 -0.0257179681 0
0.13666667 -0.0257179681 0
0.13333334 -0.0257179681 0
0.129999995 -0.0257179681 0
0.126666665 -0.0257179681 0
0.123333335 -0.0257179681 0
0.119999997 -0.0257179681 0
0.116666667 -0.0257179681 0
0.113333337 -0.0257179681 0
0.109999999 -0.0257179681 0
0.106666669 -0.0257179681 0
0.103333332 -0.0257179681 0
0.100000001 -0.0257179681 0
0.0966666639 -0.0257179681 0
0.0933333337 -0.0257179681 0
0.0900000036 -0.0257179681 0
0.086666666 -0.0257179681 0
0.0833333358 -0.0257179681 0
0.0799999982 -0.0257179681 0
0.0766666681 -0.0257179681 0
0.0733333305 -0.0257179681 0
0.0700000003 -0.0257179681 0
0.0666666701 -0.0257179681 0
0.0633333325 -0.0257179681 0
0.0599999987 -0.0257179681 0
0.0566666685 -0.0257179681 0
0.0533333346 -0.0257179681 0
0.0500000007 -0.0257179681 0
0.0466666669 -0.0257179681 0
0.043333333 -0.0257179681 0
0.0399999991 -0.0257179681 0
0.138333336 -0.0286047198 0
0.135000005 -0.0286047198 0
0.13166666 -0.0286047198 0
0.12833333 -0.0286047198 0
0.125 -0.0286047198 0
0.12166667 -0.0286047198 0
0.118333332 -0.0286047198 0
0.115000002 -0.0286047198 0
0.111666664 -0.0286047198 0
0.108333334 -0.0286047198 0
0.104999997 -0.0286047198 0
0.101666667 -0.0286047198 0
0.0983333364 -0.0286047198 0
0.0949999988 -0.0286047198 0
0.0916666687 -0.0286047198 0
0.088333331 -0.0286047198 0
0.0850000009 -0.0286047198 0
0.0816666633 -0.0286047198 0
0.0783333331 -0.0286047198 0
0.075000003 -0.0286047198 0
0.0716666654 -0.0286047198 0
0.0683333352 -0.0286047198 0
0.0649999976 -0.0286047198 0
0.0616666675 -0.0286047198 0
0.0583333336 -0.0286047198 0
0.0549999997 -0.0286047198 0
0.0516666658 -0.0286047198 0
0.0483333319 -0.0286047198 0
0.0450000018 -0.0286047198 0
0.0416666679 -0.0286047198 0
0.038333334 -0.0286047198 0
0.13666667 -0.0314914696 0
0.13333334 -0.0314914696 0
0.129999995 -0.0314914696 0
0.126666665 -0.0314914696 0
0.123333335 -0.0314914696 0
0.119999997 -0.0314914696 0
0.116666667 -0.0314914696 0
0.113333337 -0.0314914696 0
0.109999999 -0.0314914696 0
0.106666669 -0.0314914696 0
0.103333332 -0.0314914696 0
0.100000001 -0.0314914696 0
0.0966666639 -0.0314914696 0
0.0933333337 -0.0314914696 0
0.0900000036 -0.0314914696 0
0.086666666 -0.0314914696 0
0.0833333358 -0.0314914696 0
0.0799999982 -0.0314914696 0
0.0766666681 -0.0314914696 0
0.0733333305 -0.0314914696 0
0.0700000003 -0.0314914696 0
0.0666666701 -0.0314914696 0
0.0633333325 -0.0314914696 0
0.0599999987 -0.0314914696 0
0.0566666685 -0.0314914696 0
0.0533333346 -0.0314914696 0
0.0500000007 -0.0314914696 0
0.0466666669 -0.0314914696 0
0.043333333 -0.0314914696 0
0.0399999991 -0.0314914696 0
0.0366666652 -0.0314914696 0
0.135000005 -0.0343782231 0
0.13166666 -0.0343782231 0
0.12833333 -0.0343782231 0
0.125 -0.0343782231 0
0.12166667 -0.0343782231 0
0.118333332 -0.0343782231 0
0.115000002 -0.0343782231 0
0.111666664 -0.0343782231 0
0.108333334 -0.0343782231 0
0.104999997 -0.0343782231 0
0.101666667 -0.0343782231 0
0.0983333364 -0.0343782231 0
0.0949999988 -0.0343782231 0
0.0916666687 -0.0343782231 0
0.088333331 -0.0343782231 0
0.0850000009 -0.0343782231 0
0.0816666633 -0.0343782231 0
0.0783333331 -0.0343782231 0
0.075000003 -0.0343782231 0
0.0716666654 -0.0343782231 0
0.0683333352 -0.0343782231 0
0.0649999976 -0.0343782231 0
0.0616666675 -0.0343782231 0
0.0583333336 -0.0343782231 0
0.0549999997 -0.0343782231 0
0.0516666658 -0.0343782231 0
0.0483333319 -0.0343782231 0
0.0450000018 -0.0343782231 0
0.0416666679 -0.0343782231 0
0.038333334 -0.0343782231 0
0.0350000001 -0.0343782231 0
0.13333334 -0.0372649729 0
0.129999995 -0.0372649729 0
0.126666665 -0.0372649729 0
0.123333335 -0.0372649729 0
0.119999997 -0.0372649729 0
0.116666667 -0.0372649729 0
0.113333337 -0.0372649729 0
0.109999999 -0.0372649729 0
0.106666669 -0.0372649729 0
0.103333332 -0.0372649729 0
0.100000001 -0.0372649729 0
0.0966666639 -0.0372649729 0
0.0933333337 -0.0372649729 0
0.0900000036 -0.0372649729 0
0.086666666 -0.0372649729 0
0.0833333358 -0.0372649729 0
0.0799999982 -0.0372649729 0
0.0766666681 -0.0372649729 0
0.0733333305 -0.0372649729 0
0.0700000003 -0.0372649729 0
0.0666666701 -0.0372649729 0
0.0633333325 -0.0372649729 0
0.0599999987 -0.0372649729 0
0.0566666685 -0.0372649729 0
0.0533333346 -0.0372649729 0
0.0500000007 -0.0372649729 0
0.0466666669 -0.0372649729 0
0.043333333 -0.0372649729 0
0.0399999991 -0.0372649729 0
0.0366666652 -0.0372649729 0
0.0333333351 -0.0372649729 0
0.13166666 -0.0401517227 0
0.12833333 -0.0401517227 0
0.125 -0.0401517227 0
0.12166667 -0.0401517227 0
0.118333332 -0.0401517227 0
0.115000002 -0.0401517227 0
0.111666664 -0.0401517227 0
[...]
POINT_DATA 961
SCALARS Temp float 1
LOOKUP_TABLE default
407.09919343744355
358.4865212142877
317.93907777689077
286.1699404000812
262.43344545280377
245.50464412960892
233.97144917219345
226.45883942851003
221.77395920345003
218.9728483133289
217.36431077648936
216.47550171989155
216.00202862147833
215.75841907099112
215.63719120636088
215.5789358644232
215.55244262030425
215.54267208907552
215.54453671921556
215.56122037905968
215.60699835060439
215.7157540302885
215.95753350011626
216.4657877016126
217.47633225642136
219.37465179138636
222.74060584328845
228.37181660666516
237.26525144149593
250.55158661023972
269.64640524932213
358.486536152924
311.6136884615992
274.1006540455485
245.34167236355177
224.28558717256976
209.55751216529802
199.70938766337937
193.407925150138
189.54443466396785
187.27116596103573
185.98526164628973
185.28467481838467
184.91635967416877
184.72919549988458
184.63721075495275
184.59376711893168
184.5750259915812
184.57046655927692
184.5786702600587
184.60764714454933
184.680228894482
184.8463354927423
185.2047645486181
185.93667265198252
187.3500534982047
189.9283952273229
194.36828588577913
201.58426749167322
212.66041427978675
228.749503848469
250.55160617507548
317.9390325618119
274.100633584174
239.53309917870513
213.4241017850414
194.55241710689603
181.49997803613456
172.8572506623608
167.37329330796456
164.0347627555517
162.08191015874934
160.98253164178817
160.38585623540177
160.07311813022213
159.9146038827832
159.83697558670548
159.8007698498777
159.78630448794672
159.7859842932622
159.80165103287223
159.84674519763269
159.95429148158004
160.19288725457096
160.69325137690788
161.68650401661506
163.55118392460471
166.8587020444831
172.39854700728472
181.15934383646905
194.24313368231307
212.66040486965625
237.2652613569279
286.16988527791403
245.34164360128975
213.424103061505
189.49058977492638
172.286891078638
160.43434608802656
152.60506937026966
147.64305662114856
144.62265298818238
142.8546250194274
141.85793242825838
141.3159967248192
141.03134933159103
140.88679685918527
140.81603195170288
140.78350140714295
140.77196357304098
140.77606272164107
140.80097959386325
140.86630692143726
141.01652472893477
141.34034264678294
142.00098158919477
143.277207333639
145.609715007987
149.63968366101807
156.2188740062154
166.36733795333672
181.15935908445812
201.58428050325097
228.37180814993917
262.4333964538934
224.28556184302323
194.5524037922984
172.28695383129414
156.28068492989667
145.23890596089564
137.92917839764945
133.28331966993127
130.44622782793408
128.77977582890063
127.8370502005956
127.322695252635
127.05166761238239
126.91369622281938
126.84622380226146
126.81583955575611
126.80691591644634
126.81612317753184
126.85219900844884
126.941400551347
127.14017524573457
127.55715556954027
128.38581730268328
129.94614987300173
132.72791108128035
137.42063209328043
144.90970951418865
156.21886740117418
172.39854249863342
194.3682840524575
222.74061180518208
245.5045960757784
209.55754584045204
181.50002254716543
160.43431603800622
145.23889437391517
134.71574087725998
127.72101905592338
123.25738476065025
120.52099849560379
118.90787135730498
117.99229334142512
117.49126781421829
117.22660544978982
117.09168534397932
117.02591243115195
116.99712416143652
116.9909478113273
117.00604995126854
117.0548642301991
117.17039971804627
117.4206503865829
117.93236152709771
118.92469452954609
120.74987302664623
123.93209142333414
129.18955844418912
137.42062929971377
149.6396849430869
166.85870900199845
189.928374322438
219.3746454464115
233.97145730778107
199.70940946827588
172.85729498060007
152.60503417115794
137.9291648589817
127.72101571887131
120.90811246257982
116.54471184171175
113.86122625193526
112.2749194870118
111.37244657818992
110.87762422981532
110.61585745087282
110.482385145948
110.41765859297426
110.39034141839241
110.3871686403077
110.40877734712862
110.47123077143425
110.6138853743779
110.91499122864684
111.51637387000677
112.6570282887018
114.71183786352117
118.22622980480045
123.93208799034981
132.72790376800342
145.60970430511134
163.55118211505425
187.3500513159386
217.4763410415877
226.4588544275202
193.4079513188573
167.3732388540959
147.6430259241872
133.2833185933243
123.25739449865337
116.54470955819056
112.2340582689255
109.57721393365702
108.00387172461812
107.1074902468671
106.61546584204669
106.35500963665959
106.22229905543497
106.15838430054204
106.13255943300132
106.1325830942747
106.16096027766434
106.23707747111345
106.40580477501217
106.75376681605651
107.434264646294
108.70016406781724
110.94052116455457
114.71183605293119
120.74987047872132
129.94615144034816
143.27720848994187
161.68648977982863
185.9366535263028
216.46577776856208
221.7739666046244
189.54446785068447
164.03471807731395
144.62263530892352
130.44622978879627
120.5209897477914
113.86122429118548
109.57722017043365
106.93328452347541
105.36597925511965
104.47233896264686
103.98155243857993
103.7217156010669
103.58949144209497
103.52631640971461
103.50201279797115
103.50526747178068
103.54025071937997
103.62917275033428
103.8213191736471
104.20958738840537
104.955232557187
106.31983497285073
108.70016575924257
112.65702869544903
118.92469381281582
128.3858159661852
142.0009774541542
160.69325504650863
185.20477131743291
215.95755229161853
218.97288439026582
187.2711020271055
162.0818875743882
142.8546217564819
128.7797880492572
118.90787040701483
112.2749244902782
108.00387038556431
105.36597816859249
103.80139327739694
102.90896122166471
102.4187301189589
102.15922820889139
102.02738713655646
101.96492470192639
101.94211492767951
101.94844684819589
101.98947412167772
102.08962640760906
102.30144485690295
102.72212686601978
103.51791758616318
104.95523136630658
107.4342643191305
111.51637364798296
117.93236101138308
127.55715536764396
141.34032588976993
160.19287272261272
184.84631875691582
215.71574545352075
217.36436953578908
185.98521171048844
160.98251942257073
141.8579378833166
127.83704055741255
117.99229464308334
111.37245342288307
107.10749048343095
104.47234045957998
102.90896110748074
102.01706615731044
101.52711088834064
101.26783890088589
101.13634444921388
101.0745651828213
101.05314996616343
101.06223906303964
101.1084535217713
101.21783381623527
101.44512515334135
101.89020902293078
102.72212809129356
104.2095877678959
106.75376571936245
110.91498945634066
117.42064913789537
127.14017237624857
141.01652298602107
159.954296604736
184.68023740594285
215.6069850595478
216.47544171650281
185.28464223785477
160.38585421293993
141.3160089646726
127.32268705996535
117.49127158304829
110.87762029535459
106.61546661953818
103.98154976366591
102.41873010944049
101.52711178191853
101.0373430122874
100.77827859306446
100.64712227309352
100.58598358431799
100.56580629580242
100.57722394220637
100.62762075434924
100.74411516367002
100.98281902244872
101.44512606355944
102.30144553340577
103.8213186549493
106.40580707137194
110.61388878768763
117.17040587518443
126.94139594306509
140.8663012237336
159.84674638308118
184.60764892990787
215.5612343454132
216.0020005359642
184.91635419677667
160.07313547536967
141.03133663595165
127.05166966970347
117.22661694856923
110.61585662814724
106.35501314474742
103.72171431458396
102.15922907185178
101.26783839202959
100.77827829934895
100.51945796255757
100.38865788585818
100.32811622344582
100.30899566290225
100.32227788796129
100.37585324581448
100.49750423804187
100.74411447052456
101.21783358902526
102.08962736426692
103.62917077397665
106.23707671033691
110.47122942892878
117.05486211157555
126.85219739079409
140.80097805588113
159.80165760531128
184.57864761296742
215.54454046214752
215.7583965188637
184.7291942699152
159.91462671279675
140.8867853594256
126.91369994868643
117.09167839252376
110.48238559880176
106.22229638033885
103.58949062017054
102.02738845683706
101.13634382221386
100.64712224813724
100.38865781520018
100.2582808966712
100.19831965117093
100.18009109138755
100.19480820058565
100.25067514268818
100.37585314260122
100.627620938586
101.1084534326123
101.9894747172065
103.54025053905977
106.16096232114492
110.40878097266803
117.00604690250329
126.81611918238681
140.77605794237445
159.78598552588878
184.57047032148404
215.5426713524613
215.63719020539207
184.63722977394906
159.83696215311355
140.81603262819655
126.84623857462343
117.0259108405713
110.41766421529391
106.15838369504235
103.52631636832359
101.96492442104979
101.07456516969583
100.58598379377104
100.32811615125709
100.19831972798183
100.1389867224006
100.12154225976599
100.13735174294293
100.1948081368798
100.32227771657405
100.57722370073272
101.06223909278516
101.94844642957754
103.50526561247315
106.13258237807489
110.3871671937732
116.99094687578578
126.80691513672616
140.77196323065857
159.78628881209798
184.57502218041503
215.5524343533882
215.57893640173918
184.59378918444622
159.80075747520394
140.7835045251522
126.81582857336198
116.99712396661236
110.39033654036642
106.13255969818066
103.5020137474585
101.94211463599154
101.05315007617187
100.5658057815994
100.30899568600367
100.1800909772128
100.12154226164988
100.1048656164174
100.12154229188087
100.1800910222915
100.30899586263531
100.56580601053406
101.05314980638376
101.94211559377261
103.50201277360115
106.13256177577708
110.390339331592
116.99712149996131
126.81583702510929
140.7834971202439
159.80077431681457
184.59375746070273
215.57893799543646
215.5524642499668
184.5750027734803
159.78631108115383
140.77198198578031
126.80691265469171
116.99095542111705
110.38716745196011
106.13258508690224
103.50526560863906
101.94844753504778
101.0622398523643
100.57722369315266
100.32227813627915
100.19480817248534
100.13735177324826
100.12154231494142
100.13898677118281
100.19831958837952
100.32811622171776
100.58598343532533
101.07456459169467
101.96492442012006
103.52631468104299
106.15838338083086
110.41765825313604
117.02591210924383
126.84622420572583
140.81601443638849
159.83697274187554
184.63719431792688
215.63718309565672
215.542703675695
184.57044900422179
159.78599489100026
140.77604530004407
126.81612218187117
117.0060421563679
110.40877742402957
106.16096375447013
103.54024884081093
101.98947516496756
101.10845300262338
100.6276206074879
100.37585304923067
100.25067507649337
100.19480825382854
100.18009110697392
100.19831966937981
100.2582809845257
100.38865792646004
100.64712208357408
101.13634432501851
102.02738780529234
103.58949174295024
106.22229786067865
110.48238355953899
117.09168335835523
126.91369316174877
140.88679518784227
159.91459563401153
184.72918684635613
215.75842025770453
215.5445038601848
184.57866005744665
159.80166794691831
140.8009634108921
126.85220155981166
117.05485695110433
110.47123013267756
106.23707443294624
103.62917131374967
102.08962790373204
101.21783310416897
100.74411497994956
100.49750413010418
100.37585317538863
100.32227787768174
100.30899565652368
100.3281161705744
100.38865796176714
100.51945785323436
100.77827817275633
101.26783873547627
102.15922872605977
103.72171522424546
106.35501117118676
110.61586034184174
117.22661120765032
127.0516625058377
141.03135204784667
160.07311769233402
184.91635981829018
216.002039020362
215.56121303643334
184.60765979658424
159.84672788456737
140.86630445615367
126.94138842641111
117.17040027138488
110.61389091330454
106.40580429596594
103.821319420847
102.3014448001791
101.44512549009558
100.98281884883544
100.74411502815254
100.62762088180753
100.57722396666158
100.565806299837
100.58598362290427
100.64712231864138
100.77827849289326
101.03734326171441
101.52711136562911
102.41873068639094
103.98155047444794
106.61546506946783
110.87762306257291
117.49126619286722
127.32269333584613
141.31598465046818
160.38584885042886
185.28466616467742
216.4755023759745
215.6069943104884
184.68024691281497
159.95427540058776
141.01652783041078
127.14016460801463
117.42065016872539
110.91498586504123
106.75376664923658
104.20958871465419
102.72212727830309
101.89020995527422
101.44512500028287
101.21783369828756
101.10845348683188
101.0622390113817
101.05314996649962
101.07456524954483
101.13634437766652
101.26783884670465
101.527111056804
102.01706591735564
102.90896156683804
104.47233913234405
107.1074926804599
111.37244940769958
117.99228978065734
127.83705217308386
141.85792705325775
160.9825309777786
185.98526172368204
217.36430752247963
215.71575131858873
184.84629157102867
160.19287614248003
141.34031519955323
127.55714737139594
117.93236425553454
111.51636950046796
107.43426564231426
104.95523023702457
103.51791667846011
102.7221265747637
102.30144459998066
102.08962665847564
101.98947420792624
101.948446856176
101.94211494200765
101.96492470867013
102.02738707899671
102.1592283342301
102.41872988283512
102.90896155889025
103.80139363129244
105.3659772293056
108.00387218312656
112.2749212248265
118.90787576932912
128.77977278490462
142.85462330690055
162.0819182997695
187.27117718640932
218.97286492581185
215.95758023301337
185.2047625873699
160.69327631944506
142.00097858498788
128.38582658297463
118.92469536464449
112.65703548027588
108.70017151626425
106.31983718658762
104.955237229724
104.20959007095777
103.82132172534533
103.6291753383895
103.54025320635768
103.50527013309691
103.50201550946431
103.52631892586997
103.58949402120876
103.72171819716044
103.98155467778602
104.4723414300294
105.36598038449155
106.93328731096183
109.5772183703275
113.86122122707783
120.520996929564
130.4462205480071
144.62264259511468
164.03475641585933
189.54440575986862
221.77394120223968
216.4657709335275
185.93667894822505
161.68649202002814
143.27721060246887
129.9461662322199
120.74987275329612
114.71184480456064
110.9405252215691
108.70016780673556
107.43426890019194
106.7537708690133
106.40580963090063
106.23708207895723
106.16096465963413
106.13258742617587
106.13256371890037
106.1583885751591
106.22230339861048
106.35501374776194
106.6154702374702
107.10749435322373
108.00387489868447
109.57721834997581
112.23405890551703
116.54471514567432
123.25738483932568
133.28331966409942
147.64304726959486
167.37329068912453
193.4079183898477
226.4588382389462
217.4763257629241
187.35007059421199
163.55117779294605
145.60971436204184
132.72790279138866
123.93209551905018
118.22623669140609
114.71183996846827
112.65703446183633
111.51637730335104
110.91499446981061
110.6138886638988
110.47123385741611
110.40878084224802
110.38717224767288
110.39034471171084
110.41766210989344
110.48238861009871
110.61586070134223
110.87762772276005
111.37244946912598
112.27492354583059
113.86122782010332
116.54471346861033
120.90812152765727
127.72101445865263
137.92917645831673
152.6050693823988
172.85724678773582
199.70938565964815
233.97145924908557
219.37465346051937
189.92835891244317
166.85869705164833
149.63969227661568
137.42062252759882
129.18956199671905
123.93208958677265
120.74987142523156
118.92469397029738
117.93236083642996
117.42065114405204
117.17040029635722
117.05486440885802
117.00605001786398
116.99094779037183
116.99712424090966
117.02591256024476
117.09168541662851
117.22660588240073
117.49126797070049
117.99229333456927
118.90787247360187
120.52099778602681
123.25738801164734
127.7210130194342
134.7157433890864
145.2389125702302
160.43435711493635
181.49999214628323
209.557521971963
245.50459776657695
222.7406095541529
194.36825820336654
172.39853719531806
156.21885010160534
144.90970469494835
137.4206275255643
132.72790071503093
129.94614553381373
128.38580962195203
127.5571476697632
127.14016740351866
126.94139234234702
126.85219153016932
126.81611591488823
126.80690815805694
126.81583222218919
126.8462163276152
126.91368857348698
127.05166022387137
127.32268770500477
127.83704346156826
128.7797677571129
130.44622065284284
133.28331764144616
137.92916953782253
145.23890658903022
156.28070247330083
172.28690196543008
194.55236602243423
224.2855374446253
262.4333943230073
228.37182045921483
201.58429479987905
181.15939449822787
166.36735466276326
156.21890180354274
149.63970371446953
145.60973473259995
143.27722787492507
142.00100167255704
141.3403646840469
141.01654659642293
140.86632813707087
140.80100057993835
140.77608354249367
140.77198463172093
140.7835224588723
140.8160530031555
140.8868182794991
141.0313702046756
141.31601759675468
141.85795381666955
142.85464478337724
144.62267450344606
147.64307052379226
152.60508728441985
160.43437227627766
172.2869294539092
189.49056116104566
213.4240677222419
245.34161462876358
286.16988934988007
237.2652720827271
212.6604378735501
194.24314975939748
181.15937208009967
172.39857403784123
166.85872112399144
163.55120968568826
161.68652560712874
160.6932725255988
160.19290832819107
159.95431188352688
159.84676656551406
159.80167271304265
159.78600534304667
159.78632613668765
159.80079124182657
159.83699674688387
159.9146251926308
160.07313936715707
160.3858777400675
160.9825518404588
162.0819309034589
164.0347858594757
167.3733094667082
172.85727125085015
181.50000698663615
194.5523823593295
213.42406868830435
239.53306275722616
274.1006009652875
317.93902993671566
250.55160894241396
228.7495273840783
212.6604170664045
201.58428257316052
194.3682927525311
189.92840198111477
187.35006128450263
185.9366800650514
185.20477456664628
184.84634528324017
184.6802377517104
184.60765576081414
184.57867868530872
184.5704754436193
184.5750347824791
184.59377595699232
184.6372199964362
184.7292040456791
184.9163685066907
185.28468404332256
185.98526971020428
187.27117520397567
189.54443828878274
193.40793174713252
199.70939980501478
209.5575326619081
224.2855471798964
245.34162010962513
274.10059413875246
311.6136310280356
358.48644117843855
269.6464216602559
250.55158102088373
237.26525818105324
228.37182235564026
222.74060283137615
219.3746561273122
217.47633195990207
216.46578809901888
215.95753375848997
215.71575252760854
215.6069982978376
215.56122050351522
215.54453667452321
215.54267246715287
215.55244269980676
215.5789359400455
215.6371907787829
215.7584193070794
216.00202876672037
216.47550079332225
217.36431049285002
218.97285011009834
221.77395577649116
226.45883878829017
233.97145325311635
245.50459230717811
262.43339478787044
286.16987965972527
317.93900614611147
358.48642330684766
407.0987822581814
