# vtk DataFile Version 2.0
Unstructured Grid Example
ASCII
DATASET UNSTRUCTURED_GRID

POINTS 961 float
0.150000006 -0.00839745998 0
0.146666661 -0.00839745998 0
0.143333331 -0.00839745998 0
0.140000001 -0.00839745998 0
0.13666667 -0.00839745998 0
0.13333334 -0.00839745998 0
0.129999995 -0.00839745998 0
0.126666665 -0.00839745998 0
0.123333335 -0.00839745998 0
0.119999997 -0.00839745998 0
0.116666667 -0.00839745998 0
0.113333337 -0.00839745998 0
0.109999999 -0.00839745998 0
0.106666669 -0.00839745998 0
0.103333332 -0.00839745998 0
0.100000001 -0.00839745998 0
0.0966666639 -0.00839745998 0
0.0933333337 -0.00839745998 0
0.0900000036 -0.00839745998 0
0.086666666 -0.00839745998 0
0.0833333358 -0.00839745998 0
0.0799999982 -0.00839745998 0
0.0766666681 -0.00839745998 0
0.0733333305 -0.00839745998 0
0.0700000003 -0.00839745998 0
0.0666666701 -0.00839745998 0
0.0633333325 -0.00839745998 0
0.0599999987 -0.00839745998 0
0.0566666685 -0.00839745998 0
0.0533333346 -0.00839745998 0
0.0500000007 -0.00839745998 0
0.148333326 -0.0112842107 0
0.144999996 -0.0112842107 0
0.141666666 -0.0112842107 0
0.138333336 -0.0112842107 0
0.135000005 -0.0112842107 0
0.13166666 -0.0112842107 0
0.12833333 -0.0112842107 0
0.125 -0.0112842107 0
0.12166667 -0.0112842107 0
0.118333332 -0.0112842107 0
0.115000002 -0.0112842107 0
0.111666664 -0.0112842107 0
0.108333334 -0.0112842107 0
0.104999997 -0.0112842107 0
0.101666667 -0.0112842107 0
0.0983333364 -0.0112842107 0
0.0949999988 -0.0112842107 0
0.0916666687 -0.0112842107 0
0.088333331 -0.0112842107 0
0.0850000009 -0.0112842107 0
0.0816666633 -0.0112842107 0
0.0783333331 -0.0112842107 0
0.075000003 -0.0112842107 0
0.0716666654 -0.0112842107 0
0.0683333352 -0.0112842107 0
0.0649999976 -0.0112842107 0
0.0616666675 -0.0112842107 0
0.0583333336 -0.0112842107 0
0.0549999997 -0.0112842107 0
0.0516666658 -0.0112842107 0
0.0483333319 -0.0112842107 0
0.146666661 -0.0141709624 0
0.143333331 -0.0141709624 0
0.140000001 -0.0141709624 0
0.13666667 -0.0141709624 0
0.13333334 -0.0141709624 0
0.129999995 -0.0141709624 0
0.126666665 -0.0141709624 0
0.123333335 -0.0141709624 0
0.119999997 -0.0141709624 0
0.116666667 -0.0141709624 0
0.113333337 -0.0141709624 0
0.109999999 -0.0141709624 0
0.106666669 -0.0141709624 0
0.103333332 -0.0141709624 0
0.100000001 -0.0141709624 0
0.0966666639 -0.0141709624 0
0.0933333337 -0.0141709624 0
0.0900000036 -0.0141709624 0
0.086666666 -0.0141709624 0
0.0833333358 -0.0141709624 0
0.0799999982 -0.0141709624 0
0.0766666681 -0.0141709624 0
0.0733333305 -0.0141709624 0
0.0700000003 -0.0141709624 0
0.0666666701 -0.0141709624 0
0.0633333325 -0.0141709624 0
0.0599999987 -0.0141709624 0
0.0566666685 -0.0141709624 0
0.0533333346 -0.0141709624 0
0.0500000007 -0.0141709624 0
0.0466666669 -0.0141709624 0
0.144999996 -0.0170577131 0
0.141666666 -0.0170577131 0
0.138333336 -0.0170577131 0
0.135000005 -0.0170577131 0
0.13166666 -0.0170577131 0
0.12833333 -0.0170577131 0
0.125 -0.0170577131 0
0.12166667 -0.0170577131 0
0.118333332 -0.0170577131 0
0.115000002 -0.0170577131 0
0.111666664 -0.0170577131 0
0.108333334 -0.0170577131 0
0.104999997 -0.0170577131 0
0.101666667 -0.0170577131 0
0.0983333364 -0.0170577131 0
0.0949999988 -0.0170577131 0
0.0916666687 -0.0170577131 0
0.088333331 -0.0170577131 0
0.0850000009 -0.0170577131 0
0.0816666633 -0.0170577131 0
0.0783333331 -0.0170577131 0
0.075000003 -0.0170577131 0
0.0716666654 -0.0170577131 0
0.0683333352 -0.0170577131 0
0.0649999976 -0.0170577131 0
0.0616666675 -0.0170577131 0
0.0583333336 -0.0170577131 0
0.0549999997 -0.0170577131 0
0.0516666658 -0.0170577131 0
0.0483333319 -0.0170577131 0
0.0450000018 -0.0170577131 0
0.143333331 -0.0199444648 0
0.140000001 -0.0199444648 0
0.13666667 -0.0199444648 0
0.13333334 -0.0199444648 0
0.129999995 -0.0199444648 0
0.126666665 -0.0199444648 0
0.123333335 -0.0199444648 0
0.119999997 -0.0199444648 0
0.116666667 -0.0199444648 0
0.113333337 -0.0199444648 0
0.109999999 -0.0199444648 0
0.106666669 -0.0199444648 0
0.103333332 -0.0199444648 0
0.100000001 -0.0199444648 0
0.0966666639 -0.0199444648 0
0.0933333337 -0.0199444648 0
0.0900000036 -0.0199444648 0
0.086666666 -0.0199444648 0
0.0833333358 -0.0199444648 0
0.0799999982 -0.0199444648 0
0.0766666681 -0.0199444648 0
0.0733333305 -0.0199444648 0
0.0700000003 -0.0199444648 0
0.0666666701 -0.0199444648 0
0.0633333325 -0.0199444648 0
0.0599999987 -0.0199444648 0
0.0566666685 -0.0199444648 0
0.0533333346 -0.0199444648 0
0.0500000007 -0.0199444648 0
0.0466666669 -0.0199444648 0
0.043333333 -0.0199444648 0
0.141666666 -0.0228312165 0
0.138333336 -0.0228312165 0
0.135000005 -0.0228312165 0
0.13166666 -0.0228312165 0
0.12833333 -0.0228312165 0
0.125 -0.0228312165 0
0.12166667 -0.0228312165 0
0.118333332 -0.0228312165 0
0.115000002 -0.0228312165 0
0.111666664 -0.0228312165 0
0.108333334 -0.0228312165 0
0.104999997 -0.0228312165 0
0.101666667 -0.0228312165 0
0.0983333364 -0.0228312165 0
0.0949999988 -0.0228312165 0
0.0916666687 -0.0228312165 0
0.088333331 -0.0228312165 0
0.0850000009 -0.0228312165 0
0.0816666633 -0.0228312165 0
0.0783333331 -0.0228312165 0
0.075000003 -0.0228312165 0
0.0716666654 -0.0228312165 0
0.0683333352 -0.0228312165 0
0.0649999976 -0.0228312165 0
0.0616666675 -0.0228312165 0
0.0583333336 -0.0228312165 0
0.0549999997 -0.0228312165 0
0.0516666658 -0.0228312165 0
0.0483333319 -0.0228312165 0
0.0450000018 -0.0228312165 0
0.0416666679 -0.0228312165 0
0.140000001 -0.0257179681 0
0.13666667 -0.0257179681 0
0.13333334 -0.0257179681 0
0.129999995 -0.0257179681 0
0.126666665 -0.0257179681 0
0.123333335 -0.0257179681 0
0.119999997 -0.0257179681 0
0.116666667 -0.0257179681 0
0.113333337 -0.0257179681 0
0.109999999 -0.0257179681 0
0.106666669 -0.0257179681 0
0.103333332 -0.0257179681 0
0.100000001 -0.0257179681 0
0.0966666639 -0.0257179681 0
0.0933333337 -0.0257179681 0
0.0900000036 -0.0257179681 0
0.086666666 -0.0257179681 0
0.0833333358 -0.0257179681 0
0.0799999982 -0.0257179681 0
0.0766666681 -0.0257179681 0
0.0733333305 -0.0257179681 0
0.0700000003 -0.0257179681 0
0.0666666701 -0.0257179681 0
0.0633333325 -0.0257179681 0
0.0599999987 -0.0257179681 0
0.0566666685 -0.0257179681 0
0.0533333346 -0.0257179681 0
0.0500000007 -0.0257179681 0
0.0466666669 -0.0257179681 0
0.043333333 -0.0257179681 0
0.0399999991 -0.0257179681 0
0.138333336 -0.0286047198 0
0.135000005 -0.0286047198 0
0.13166666 -0.0286047198 0
0.12833333 -0.0286047198 0
0.125 -0.0286047198 0
0.12166667 -0.0286047198 0
0.118333332 -0.0286047198 0
0.115000002 -0.0286047198 0
0.111666664 -0.0286047198 0
0.108333334 -0.0286047198 0
0.104999997 -0.0286047198 0
0.101666667 -0.0286047198 0
0.0983333364 -0.0286047198 0
0.0949999988 -0.0286047198 0
0.0916666687 -0.0286047198 0
0.088333331 -0.0286047198 0
0.0850000009 -0.0286047198 0
0.0816666633 -0.0286047198 0
0.0783333331 -0.0286047198 0
0.075000003 -0.0286047198 0
0.0716666654 -0.0286047198 0
0.0683333352 -0.0286047198 0
0.0649999976 -0.0286047198 0
0.0616666675 -0.0286047198 0
0.0583333336 -0.0286047198 0
0.0549999997 -0.0286047198 0
0.0516666658 -0.0286047198 0
0.0483333319 -0.0286047198 0
0.0450000018 -0.0286047198 0
0.0416666679 -0.0286047198 0
0.038333334 -0.0286047198 0
0.13666667 -0.0314914696 0
0.13333334 -0.0314914696 0
0.129999995 -0.0314914696 0
0.126666665 -0.0314914696 0
0.123333335 -0.0314914696 0
0.119999997 -0.0314914696 0
0.116666667 -0.0314914696 0
0.113333337 -0.0314914696 0
0.109999999 -0.0314914696 0
0.106666669 -0.0314914696 0
0.103333332 -0.0314914696 0
0.100000001 -0.0314914696 0
0.0966666639 -0.0314914696 0
0.0933333337 -0.0314914696 0
0.0900000036 -0.0314914696 0
0.086666666 -0.0314914696 0
0.0833333358 -0.0314914696 0
0.0799999982 -0.0314914696 0
0.0766666681 -0.0314914696 0
0.0733333305 -0.0314914696 0
0.0700000003 -0.0314914696 0
0.0666666701 -0.0314914696 0
0.0633333325 -0.0314914696 0
0.0599999987 -0.0314914696 0
0.0566666685 -0.0314914696 0
0.0533333346 -0.0314914696 0
0.0500000007 -0.0314914696 0
0.0466666669 -0.0314914696 0
0.043333333 -0.0314914696 0
0.0399999991 -0.0314914696 0
0.0366666652 -0.0314914696 0
0.135000005 -0.0343782231 0
0.13166666 -0.0343782231 0
0.12833333 -0.0343782231 0
0.125 -0.0343782231 0
0.12166667 -0.0343782231 0
0.118333332 -0.0343782231 0
0.115000002 -0.0343782231 0
0.111666664 -0.0343782231 0
0.108333334 -0.0343782231 0
0.104999997 -0.0343782231 0
0.101666667 -0.0343782231 0
0.0983333364 -0.0343782231 0
0.0949999988 -0.0343782231 0
0.0916666687 -0.0343782231 0
0.088333331 -0.0343782231 0
0.0850000009 -0.0343782231 0
0.0816666633 -0.0343782231 0
0.0783333331 -0.0343782231 0
0.075000003 -0.0343782231 0
0.0716666654 -0.0343782231 0
0.0683333352 -0.0343782231 0
0.0649999976 -0.0343782231 0
0.0616666675 -0.0343782231 0
0.0583333336 -0.0343782231 0
0.0549999997 -0.0343782231 0
0.0516666658 -0.0343782231 0
0.0483333319 -0.0343782231 0
0.0450000018 -0.0343782231 0
0.0416666679 -0.0343782231 0
0.038333334 -0.0343782231 0
0.0350000001 -0.0343782231 0
0.13333334 -0.0372649729 0
0.129999995 -0.0372649729 0
0.126666665 -0.0372649729 0
0.123333335 -0.0372649729 0
0.119999997 -0.0372649729 0
0.116666667 -0.0372649729 0
0.113333337 -0.0372649729 0
0.109999999 -0.0372649729 0
0.106666669 -0.0372649729 0
0.103333332 -0.0372649729 0
0.100000001 -0.0372649729 0
0.0966666639 -0.0372649729 0
0.0933333337 -0.0372649729 0
0.0900000036 -0.0372649729 0
0.086666666 -0.0372649729 0
0.0833333358 -0.0372649729 0
0.0799999982 -0.0372649729 0
0.0766666681 -0.0372649729 0
0.0733333305 -0.0372649729 0
0.0700000003 -0.0372649729 0
0.0666666701 -0.0372649729 0
0.0633333325 -0.0372649729 0
0.0599999987 -0.0372649729 0
0.0566666685 -0.0372649729 0
0.0533333346 -0.0372649729 0
0.0500000007 -0.0372649729 0
0.0466666669 -0.0372649729 0
0.043333333 -0.0372649729 0
0.0399999991 -0.0372649729 0
0.0366666652 -0.0372649729 0
0.0333333351 -0.0372649729 0
0.13166666 -0.0401517227 0
0.12833333 -0.0401517227 0
0.125 -0.0401517227 0
0.12166667 -0.0401517227 0
0.118333332 -0.0401517227 0
0.115000002 -0.0401517227 0
0.111666664 -0.0401517227 0
[...]
POINT_DATA 961
SCALARS Temp float 1
LOOKUP_TABLE default
398.747397072525
349.88888196441843
309.4850621243723
278.21449975696277
255.20386642387336
239.08639479400713
228.33051500211454
221.4836285387761
217.31956271546767
214.89565749411136
213.54242925243312
212.8162840096664
212.44093976542007
212.25365195071453
212.16328728087427
212.1211665010945
212.10254870669
212.09585968819556
212.0973021662668
212.109458171443
212.1438381502022
212.22868771543187
212.42477096859034
212.85259899573086
213.7334152031234
215.44183975619137
218.55939329253397
223.90787969294476
232.53704434953855
245.65539043520735
264.77514644283826
349.8888970945428
302.92088890118873
265.73351883442535
237.60590831732807
217.34541984303917
203.44072555331798
194.3408347912511
188.6545003769147
185.25627781517287
183.3104124756809
182.24060893162985
181.6746813880823
181.38600578578212
181.2437355758393
181.17592475473793
181.14483502772467
181.13177615045947
181.12872331055053
181.13469737094687
181.15611539025886
181.21167522385335
181.34380244920627
181.6398829081568
182.26651698887545
183.51748998849342
185.86957306477467
190.030090850513
196.95083938165726
207.78184200731806
223.76081710946568
245.65540992628564
309.4850174131965
265.7334988910632
231.62056388049177
206.21082151761397
188.1458492402688
175.88720647495296
167.94177489584854
163.01712550831942
160.09385224829916
158.42906448941466
157.51773222438538
157.037236798403
156.792754421813
156.67250692603528
156.61535362833737
156.58944024783244
156.57933825506228
156.57924402395292
156.59069912794763
156.62455614026769
156.70829287954544
156.90119780770485
157.3207469438764
158.18257154091816
159.85232295417288
162.89951572106847
168.13279863346423
176.58803163472177
189.44030876015162
207.78183256265035
232.53705402073092
278.2144458790979
237.60588071235182
206.21082318820095
182.9871289539371
166.56009867325903
155.4500648513095
148.26200922418442
143.80911620317755
141.1645326372101
139.65648397591542
138.82937679307437
138.39228183458042
138.16931903682254
138.05939941345574
138.00714076989797
137.98375412950352
137.97564965005301
137.97871010103412
137.99712132716672
138.04688367015075
138.16553378007106
138.43080811039658
138.9912299016688
140.10970420707105
142.21578386466132
145.95319909428298
152.19935009411992
162.02770291110534
176.58804659841098
196.95085232116747
223.90787125716298
255.20381941943802
217.34539612203997
188.14583712547042
166.56015858759014
151.27912436261434
140.9236164978261
134.20479348802206
130.02854555368725
127.53916901006173
126.1142569844322
125.32982105200746
124.91378570051735
124.70086167961425
124.59561990532748
124.54561487331446
124.52366553837507
124.51737125727587
124.52416573060192
124.55111823779522
124.61990832390899
124.77873080779804
125.12380263680319
125.83280324788231
127.2098099922126
129.73507545024952
134.10407213868513
141.2320441121636
152.19934363364976
168.13279424346504
190.03008891632726
218.55939932354144
239.08634924121296
203.4407577486042
175.88724907706828
155.45003554334497
140.9236052804368
131.0363578821654
124.59299042997922
120.57085319565245
118.16376202442841
116.7809161676123
116.01714851290984
115.6109040679971
115.40248850311319
115.29932825907903
115.25044699703922
115.22956896477177
115.22522146180988
115.23640186715797
115.2732297583543
115.36321316639517
115.56492908264941
115.99151202166402
116.84550360705047
118.46325276103671
121.36065994625457
126.26406910313355
134.10406951581484
145.9532003418723
162.89952267205769
185.8695523863108
215.44183314593315
228.33052240912448
194.34085570138507
167.9418179139774
148.26197492287525
134.20478053542658
124.59298733974758
118.30332252178903
114.36300860708897
111.9975836399795
110.63511042726988
109.88094092696383
109.47907574275749
109.27262913919041
109.17041837191783
109.12221962157865
109.10234936403347
109.10017020872992
109.11625123714468
109.16374464635112
109.27568329725233
109.51991468275625
110.02369574669191
111.00877002958944
112.83414139172538
116.0376778516337
121.36065671164219
129.73506848249352
142.21577360265226
159.85232094433633
183.51748772351334
213.73342404652814
221.4836431410432
188.65452591906637
163.0170721651263
143.80908655515105
130.02854416980136
120.570862230115
114.36300653475136
110.46421622926107
108.11900197831466
106.76600573436511
106.01612524379635
105.61615727000952
105.41056627685717
105.30884180390925
105.26117924027669
105.2423516599951
105.24250876355462
105.26372802812308
105.32195893077834
105.45505277270107
105.73843575676288
106.31009528139961
107.40515465823293
109.39672566346715
112.83413973595732
118.46325046291406
127.20981139665643
140.10970529073995
158.1825575243749
182.26649796491327
212.85258912681752
217.31956975587892
185.25631055990115
160.09380762328803
141.16451508242713
127.53917073877093
118.16375389907743
111.99758193477206
108.11900753588198
105.78322189277394
104.43447042898173
103.68644477971328
103.28728269924562
103.0820817645708
102.98066702506442
102.93350300702123
102.91575273953629
102.91828912742027
102.94454406337103
103.01285124716071
103.16492067715215
103.48183937462306
104.10899232356462
105.28984950725648
107.40515618964663
111.00877030978005
116.8455028406895
125.83280194432676
138.9912258349165
157.32075060298408
181.6398895397606
212.42478970126618
214.89569272099254
183.31034867679261
158.42904226233932
139.65648091360683
126.11426894857537
116.78091528589695
110.63511506296393
106.76600462535512
104.43446951317446
103.08755696810222
102.34031713838475
101.9415027063675
101.73650869183204
101.63534184553137
101.58866532594405
101.57198090043778
101.5767912337031
101.60765623490127
101.68478195564367
101.85271248600156
102.1963894610202
102.86579721821806
104.10899126756964
106.31009495992438
110.02369556640454
115.99151158006599
125.12380253571315
138.43079178222692
156.90118344300015
181.34378579202803
212.2286790704629
213.54248753523188
182.24055929447238
157.5177204714565
138.82938211069654
125.32981198814761
116.01714983289841
109.88094733315081
106.01612543692835
103.68644608738208
102.3403170471618
101.59341284054454
101.19476590491054
100.98991480062612
100.8889759314102
100.84277046039297
100.82708378039003
100.83393116959923
100.86874163659714
100.95307376584218
101.13337587182725
101.49697087649452
102.19639048685167
103.48183971136758
105.73843477585406
109.51991308032132
115.56492786267633
124.77872798483668
138.1655320980329
156.7082979120404
181.2116837229773
212.14382485033903
212.81622440730501
181.67464921331262
157.03723503066803
138.39229397759877
124.9137780238258
115.61090760566704
109.47907216704544
105.6161579722483
103.28728036576007
101.94150270847376
101.19476663173387
100.79623314071178
100.59151351755963
100.49079905721591
100.4450359814254
100.43023361756025
100.4387948418073
100.47676677200658
100.5666055290022
100.75592677581854
101.13337662359564
101.85271305484116
103.16492022282951
105.45505479003839
109.27568638742538
115.3632189384179
124.61990390847033
138.04687813191325
156.62455727253536
181.15611710084417
212.10947212303296
212.44091226225876
181.38600083396318
156.79277184471078
138.16930695102644
124.70086373203765
115.40249939232051
109.27262839603237
105.41056946486087
103.08208062384605
101.73650942060914
100.98991438485858
100.59151328134311
100.38695194409223
100.28647513561174
100.24112316693211
100.2270713556284
100.23699454048301
100.27734593493611
100.37112779692727
100.56660497605984
100.95307358164109
101.68478276041714
103.01284951460754
105.32195825394268
109.16374341930369
115.27322775816485
124.55111667853274
137.9971198194038
156.5907055897698
181.13467479164626
212.09730584513702
212.25362992483065
181.24373466109085
156.6725296493683
138.05938834524594
124.5956234713552
115.29932180669947
109.17041876157462
105.30883940928327
102.98066630264279
101.63534296866365
100.88897541250063
100.49079902927424
100.28647507978393
100.18628320191694
100.14132941462618
100.12790531703516
100.13886454447672
100.18090859836751
100.27734585385893
100.47676691758183
100.86874155714253
101.60765673471877
102.94454390577134
105.26372985888038
109.11625455475208
115.23639900402006
124.52416190515694
137.97870545229227
156.579245180706
181.12872706708205
212.09585899705212
212.1632865244701
181.17594383711167
156.61534050799818
138.0071414260317
124.54562901776735
115.25044546795601
109.12222479986066
105.2611786772208
102.93350296627261
101.58866508733892
100.84277044456731
100.44503614945185
100.24112311054283
100.1413294722746
100.09680774816657
100.08393019121507
100.09566646690273
100.13886449561558
100.2369944063134
100.4387946473554
100.83393119569334
101.57679088110439
102.91828750341313
105.24250811980356
109.10016886183752
115.2252205841483
124.51737051051683
137.97564931421164
156.5793228689564
181.13177237418915
212.10254051624835
212.12116704388393
181.14485698691695
156.58942796116256
137.98375707371756
124.52365508313966
115.22956873053866
109.1023448950274
105.24235187886981
102.91575356528809
101.57198064209564
100.82708386628663
100.43023320408048
100.22707137159495
100.12790523001834
100.08393019239494
100.0715862697218
100.08393021496455
100.12790526387084
100.22707151120267
100.43023338802352
100.82708364516012
101.57198146423748
102.91575271463799
105.24235375633856
109.10234745616636
115.22956646580398
124.52366315383465
137.98374994047606
156.58944471425215
181.14482547174805
212.12116871431294
212.10257012202499
181.1317529303016
156.57934467918244
137.97566752850105
124.51736807685624
115.22522859245757
109.1001690783156
105.24251052056816
102.91828749707835
101.57679180940491
100.83393182002325
100.43879463774931
100.236994731805
100.13886452164105
100.09566648933348
100.08393023227275
100.09680778474257
100.14132936597238
100.24112316450429
100.44503585923584
100.84276996729251
101.58866508024879
102.93350149981202
105.2611783984242
109.12221932027788
115.25044669044907
124.54561526865491
138.0071237913183
156.61535082609464
181.1759084585729
212.1632791438728
212.09589120654798
181.12870573628706
156.57925439023418
137.9786931997464
124.52416471561133
115.23639455169344
109.11625127087177
105.26373114166306
102.94454240743548
101.60765711205451
100.86874120147026
100.47676664809146
100.27734578202013
100.18090854795655
100.13886458434769
100.12790532930939
100.14132942823412
100.18628326940092
100.28647516658225
100.49079889775501
100.88897583168136
101.63534241336792
102.98066728995107
105.30884072951628
109.17041690975435
115.29932642037281
124.59561694939882
138.05939785224405
156.67249876801054
181.24372692046305
212.2536531082494
212.09726937363916
181.13468721511893
156.59071582162858
137.99710552466826
124.55112065904343
115.27322289021339
109.1637440295452
105.32195621338842
103.01284997418607
101.68478321978039
100.9530731790361
100.56660538513218
100.37112771289046
100.27734588106348
100.23699453268586
100.2270713503712
100.24112312805286
100.28647519424833
100.38695185852
100.59151318151106
100.98991466651333
101.73650913141798
103.08208141734244
105.4105676790578
109.27263179701376
115.40249393200156
124.70085679059997
138.16932161838267
156.79275401220542
181.38600588194393
212.4409500554475
212.10945085582586
181.15612792799362
156.62453905449385
138.04688117724433
124.61989670070122
115.3632136356321
109.27568833640986
105.45505227876465
103.16492088895777
101.85271243230059
101.13337614353968
100.75592663849255
100.56660542226126
100.47676686936289
100.43879486424603
100.4302336212366
100.44503601013476
100.49079909162396
100.59151343901571
100.79623334232446
101.19476628523991
101.9415031982584
103.28728097166122
105.61615657229478
109.47907462952473
115.61090244907592
124.91378388463748
138.39227002665885
157.0372293954537
181.6746725647975
212.81628468061933
212.1438340104596
181.21169312446506
156.70827687194094
138.16553676969994
124.77872050511291
115.56492877959872
109.51990978423575
105.73843559500854
103.48184054351897
102.19638979311445
101.49697164934318
101.13337575295088
100.95307367381314
100.86874160931539
100.8339311272663
100.82708378189436
100.84277051518167
100.8889758752115
100.98991476091922
101.19476603858955
101.59341264172105
102.3403174310867
103.68644490361021
106.01612737744865
109.88094356224917
116.0171451714138
125.3298228421832
138.82937143948615
157.5177316790264
182.2406090545286
213.54242603897916
212.22868473487785
181.34375858530126
156.90118666854806
138.43078134778793
125.1237948252042
115.99151463085221
110.02369172512518
106.31009614671551
104.10899028526235
102.86579643725368
102.19638922355728
101.85271227492522
101.68478215306996
101.60765631774375
101.57679124334861
101.57198091058054
101.58866532964842
101.63534180012378
101.73650879034756
101.94150251510223
102.34031741691334
103.08755725310446
104.43446867783942
106.76600617731536
110.63511200170905
116.7809202639172
126.11425426189022
139.65648244357368
158.42907264834844
183.3104236719471
214.89567420817895
212.42481747389039
181.63988058667871
157.32077144588587
138.9912267608823
125.83281193411435
116.84550419784465
111.00877645086996
107.40516132795494
105.28985144758249
104.10899636809361
103.48184173266763
103.1649229119642
103.0128535054999
102.94454623269777
102.91829144723799
102.9157551120705
102.93350520844218
102.98066929094917
103.08208403471161
103.28728467750145
103.68644693848769
104.43447143540004
105.78322431300991
108.11900582523383
111.99757899801509
118.16376040159342
127.53916182766976
141.1645221210693
160.09384545423964
185.25624923382367
217.31954481677533
212.8525821772673
182.26652309447388
158.18255954680492
140.10970711553202
127.20982543268627
118.46325244390293
112.83414772745469
109.39672933474289
107.40515802178822
106.31009910531506
105.7384393929299
105.45505708030186
105.32196307957427
105.26373196116845
105.24251264528877
105.24235550223506
105.26118307755877
105.3088456973956
105.41056999036785
105.61616121918502
106.01612892736512
106.76600863428195
108.11900591998004
110.46421680204027
114.36301162534075
120.5708531024078
130.02854519459868
143.80910730178294
163.0171229892272
188.65449365011236
221.48362703613594
213.73340856204243
183.517506871438
159.8523165219902
142.21578325645976
129.73506748022362
121.36066373530367
116.03768422406068
112.83414335331645
111.00877559015677
110.02369894864142
109.51991768565529
109.27568632350685
109.16374747932517
109.11625443882885
109.1001735356238
109.10235238849776
109.12222286594056
109.17042155608367
109.27263214099442
109.47907894937188
109.88094363541302
110.63511411718923
111.99758516269691
114.3630102193898
118.30333089739085
124.59298635775006
134.20479184385368
148.26200935537886
167.94177111161133
194.3408325518569
228.3305243608917
215.44184108693992
185.8695369705376
162.89951080093985
145.953207536727
134.1040629855135
126.26407245699681
121.36065829429931
118.46325132435865
116.8455031302376
115.99151140248475
115.56492973049465
115.36321375969847
115.27322994663052
115.23640193555792
115.22522144621196
115.22956904403438
115.25044711931497
115.29932834662061
115.40248891058026
115.61090419291769
116.01714854474295
116.7809171532227
118.16376145142866
120.57085620667499
124.59298508846982
131.03636057182945
140.92362305714715
155.45007559838
175.88722014910906
203.44073481721279
239.0863512350614
218.5593972617014
190.03006321456292
168.13278911437038
152.1993268615168
141.23203945905883
134.10406774261784
129.73506562366308
127.20980565719923
125.83279601725269
125.12379515222588
124.77872333592858
124.61990048081408
124.55111108230844
124.52415881899928
124.51736384152565
124.52365855080085
124.54560773555363
124.59561260015327
124.70085460501542
124.9137785142627
125.32981452406571
126.11424932590566
127.53916226678089
130.02854337892316
134.20478532607257
140.92361730256422
151.27914147975412
166.56010925521076
188.14580118688409
217.34537303776568
255.20381832255313
223.90788326576055
196.95086624106796
176.58808149366632
162.02771921533633
152.19937707932456
145.95321868861575
142.2158031069557
140.10972419510097
138.99124941658303
138.43082939676916
138.16555507612657
138.04690429122323
137.99714170376637
137.97873031281128
137.97567009816058
137.9837745719058
138.00716122834885
138.05942023021586
138.16933929853633
138.39230216648318
138.8293975553488
139.65650335152242
141.1645535231314
143.80913038017178
148.26202704205485
155.45009038265425
166.56013565645281
182.98710190226592
206.21078892086638
237.60585217455295
278.2144501781091
232.53706457297227
207.78186539123703
189.44032470780976
176.58805940221728
168.1328251526697
162.89953460405465
159.85234798960758
158.18259291056074
157.32076783300943
156.90121857345093
156.7083129514115
156.6245771526333
156.5907205007274
156.57926474049444
156.5793595925037
156.58946131849646
156.6153744695923
156.6725279083715
156.79277538048467
157.03725793964173
157.51775224102056
158.42908515581308
160.0938748558902
163.01714198500878
167.94179541070866
175.88723471177536
188.14581714194716
206.21079037474587
231.62052880997027
265.73346717709165
309.485015539567
245.6554126190466
223.7608406495407
207.7818448514743
196.95085424998547
190.03009784057232
185.86957992160683
183.5174978104401
182.26652440358447
181.6398927595558
181.34381227202925
181.2116840661007
181.15612396767338
181.13470575020645
181.12873216045153
181.1317849031705
181.14484383830577
181.17593396735762
181.24374406219047
181.38601461718582
181.6746905357902
182.2406170996004
183.31042161001022
185.2562821468471
188.65450739404025
194.3408468522606
203.4407452855762
217.34538230772677
237.60585828426906
265.7334606085028
302.92083277572954
349.8888030789743
264.7751628595292
245.65538489326443
232.537050921316
223.90788527589885
218.55939039083484
215.44184370914542
213.73341501389982
212.8525994913039
212.42477127501292
212.228686185861
212.1438380685236
212.10945831418402
212.09730212634338
212.09586009018975
212.10254879568942
212.12116659172008
212.1632868339228
212.2536522315015
212.44093986699102
212.8162831823632
213.5424291647912
214.89565911440297
217.31955985458384
221.48362810593457
228.3305186381054
239.08634594443583
255.20381823065028
278.2144409300783
309.4849919683216
349.88878517508044
398.74698561235925
