# vtk DataFile Version 2.0
Unstructured Grid Example
ASCII
DATASET UNSTRUCTURED_GRID

POINTS 961 float
0.150000006 -0.00839745998 0
0.146666661 -0.00839745998 0
0.143333331 -0.00839745998 0
0.140000001 -0.00839745998 0
0.13666667 -0.00839745998 0
0.13333334 -0.00839745998 0
0.129999995 -0.00839745998 0
0.126666665 -0.00839745998 0
0.123333335 -0.00839745998 0
0.119999997 -0.00839745998 0
0.116666667 -0.00839745998 0
0.113333337 -0.00839745998 0
0.109999999 -0.00839745998 0
0.106666669 -0.00839745998 0
0.103333332 -0.00839745998 0
0.100000001 -0.00839745998 0
0.0966666639 -0.00839745998 0
0.0933333337 -0.00839745998 0
0.0900000036 -0.00839745998 0
0.086666666 -0.00839745998 0
0.0833333358 -0.00839745998 0
0.0799999982 -0.00839745998 0
0.0766666681 -0.00839745998 0
0.0733333305 -0.00839745998 0
0.0700000003 -0.00839745998 0
0.0666666701 -0.00839745998 0
0.0633333325 -0.00839745998 0
0.0599999987 -0.00839745998 0
0.0566666685 -0.00839745998 0
0.0533333346 -0.00839745998 0
0.0500000007 -0.00839745998 0
0.148333326 -0.0112842107 0
0.144999996 -0.0112842107 0
0.141666666 -0.0112842107 0
0.138333336 -0.0112842107 0
0.135000005 -0.0112842107 0
0.13166666 -0.0112842107 0
0.12833333 -0.0112842107 0
0.125 -0.0112842107 0
0.12166667 -0.0112842107 0
0.118333332 -0.0112842107 0
0.115000002 -0.0112842107 0
0.111666664 -0.0112842107 0
0.108333334 -0.0112842107 0
0.104999997 -0.0112842107 0
0.101666667 -0.0112842107 0
0.0983333364 -0.0112842107 0
0.0949999988 -0.0112842107 0
0.0916666687 -0.0112842107 0
0.088333331 -0.0112842107 0
0.0850000009 -0.0112842107 0
0.0816666633 -0.0112842107 0
0.0783333331 -0.0112842107 0
0.075000003 -0.0112842107 0
0.0716666654 -0.0112842107 0
0.0683333352 -0.0112842107 0
0.0649999976 -0.0112842107 0
0.0616666675 -0.0112842107 0
0.0583333336 -0.0112842107 0
0.0549999997 -0.0112842107 0
0.0516666658 -0.0112842107 0
0.0483333319 -0.0112842107 0
0.146666661 -0.0141709624 0
0.143333331 -0.0141709624 0
0.140000001 -0.0141709624 0
0.13666667 -0.0141709624 0
0.13333334 -0.0141709624 0
0.129999995 -0.0141709624 0
0.126666665 -0.0141709624 0
0.123333335 -0.0141709624 0
0.119999997 -0.0141709624 0
0.116666667 -0.0141709624 0
0.113333337 -0.0141709624 0
0.109999999 -0.0141709624 0
0.106666669 -0.0141709624 0
0.103333332 -0.0141709624 0
0.100000001 -0.0141709624 0
0.0966666639 -0.0141709624 0
0.0933333337 -0.0141709624 0
0.0900000036 -0.0141709624 0
0.086666666 -0.0141709624 0
0.0833333358 -0.0141709624 0
0.0799999982 -0.0141709624 0
0.0766666681 -0.0141709624 0
0.0733333305 -0.0141709624 0
0.0700000003 -0.0141709624 0
0.0666666701 -0.0141709624 0
0.0633333325 -0.0141709624 0
0.0599999987 -0.0141709624 0
0.0566666685 -0.0141709624 0
0.0533333346 -0.0141709624 0
0.0500000007 -0.0141709624 0
0.0466666669 -0.0141709624 0
0.144999996 -0.0170577131 0
0.141666666 -0.0170577131 0
0.138333336 -0.0170577131 0
0.135000005 -0.0170577131 0
0.13166666 -0.0170577131 0
0.12833333 -0.0170577131 0
0.125 -0.0170577131 0
0.12166667 -0.0170577131 0
0.118333332 -0.0170577131 0
0.115000002 -0.0170577131 0
0.111666664 -0.0170577131 0
0.108333334 -0.0170577131 0
0.104999997 -0.0170577131 0
0.101666667 -0.0170577131 0
0.0983333364 -0.0170577131 0
0.0949999988 -0.0170577131 0
0.0916666687 -0.0170577131 0
0.088333331 -0.0170577131 0
0.0850000009 -0.0170577131 0
0.0816666633 -0.0170577131 0
0.0783333331 -0.0170577131 0
0.075000003 -0.0170577131 0
0.0716666654 -0.0170577131 0
0.0683333352 -0.0170577131 0
0.0649999976 -0.0170577131 0
0.0616666675 -0.0170577131 0
0.0583333336 -0.0170577131 0
0.0549999997 -0.0170577131 0
0.0516666658 -0.0170577131 0
0.0483333319 -0.0170577131 0
0.0450000018 -0.0170577131 0
0.143333331 -0.0199444648 0
0.140000001 -0.0199444648 0
0.13666667 -0.0199444648 0
0.13333334 -0.0199444648 0
0.129999995 -0.0199444648 0
0.126666665 -0.0199444648 0
0.123333335 -0.0199444648 0
0.119999997 -0.0199444648 0
0.116666667 -0.0199444648 0
0.113333337 -0.0199444648 0
0.109999999 -0.0199444648 0
0.106666669 -0.0199444648 0
0.103333332 -0.0199444648 0
0.100000001 -0.0199444648 0
0.0966666639 -0.0199444648 0
0.0933333337 -0.0199444648 0
0.0900000036 -0.0199444648 0
0.086666666 -0.0199444648 0
0.0833333358 -0.0199444648 0
0.0799999982 -0.0199444648 0
0.0766666681 -0.0199444648 0
0.0733333305 -0.0199444648 0
0.0700000003 -0.0199444648 0
0.0666666701 -0.0199444648 0
0.0633333325 -0.0199444648 0
0.0599999987 -0.0199444648 0
0.0566666685 -0.0199444648 0
0.0533333346 -0.0199444648 0
0.0500000007 -0.0199444648 0
0.0466666669 -0.0199444648 0
0.043333333 -0.0199444648 0
0.141666666 -0.0228312165 0
0.138333336 -0.0228312165 0
0.135000005 -0.0228312165 0
0.13166666 -0.0228312165 0
0.12833333 -0.0228312165 0
0.125 -0.0228312165 0
0.12166667 -0.0228312165 0
0.118333332 -0.0228312165 0
0.115000002 -0.0228312165 0
0.111666664 -0.0228312165 0
0.108333334 -0.0228312165 0
0.104999997 -0.0228312165 0
0.101666667 -0.0228312165 0
0.0983333364 -0.0228312165 0
0.0949999988 -0.0228312165 0
0.0916666687 -0.0228312165 0
0.088333331 -0.0228312165 0
0.0850000009 -0.0228312165 0
0.0816666633 -0.0228312165 0
0.0783333331 -0.0228312165 0
0.075000003 -0.0228312165 0
0.0716666654 -0.0228312165 0
0.0683333352 -0.0228312165 0
0.0649999976 -0.0228312165 0
0.0616666675 -0.0228312165 0
0.0583333336 -0.0228312165 0
0.0549999997 -0.0228312165 0
0.0516666658 -0.0228312165 0
0.0483333319 -0.0228312165 0
0.0450000018 -0.0228312165 0
0.0416666679 -0.0228312165 0
0.140000001 -0.0257179681 0
0.13666667 -0.0257179681 0
0.13333334 -0.0257179681 0
0.129999995 -0.0257179681 0
0.126666665 -0.0257179681 0
0.123333335 -0.0257179681 0
0.119999997 -0.0257179681 0
0.116666667 -0.0257179681 0
0.113333337 -0.0257179681 0
0.109999999 -0.0257179681 0
0.106666669 -0.0257179681 0
0.103333332 -0.0257179681 0
0.100000001 -0.0257179681 0
0.0966666639 -0.0257179681 0
0.0933333337 -0.0257179681 0
0.0900000036 -0.0257179681 0
0.086666666 -0.0257179681 0
0.0833333358 -0.0257179681 0
0.0799999982 -0.0257179681 0
0.0766666681 -0.0257179681 0
0.0733333305 -0.0257179681 0
0.0700000003 -0.0257179681 0
0.0666666701 -0.0257179681 0
0.0633333325 -0.0257179681 0
0.0599999987 -0.0257179681 0
0.0566666685 -0.0257179681 0
0.0533333346 -0.0257179681 0
0.0500000007 -0.0257179681 0
0.0466666669 -0.0257179681 0
0.043333333 -0.0257179681 0
0.0399999991 -0.0257179681 0
0.138333336 -0.0286047198 0
0.135000005 -0.0286047198 0
0.13166666 -0.0286047198 0
0.12833333 -0.0286047198 0
0.125 -0.0286047198 0
0.12166667 -0.0286047198 0
0.118333332 -0.0286047198 0
0.115000002 -0.0286047198 0
0.111666664 -0.0286047198 0
0.108333334 -0.0286047198 0
0.104999997 -0.0286047198 0
0.101666667 -0.0286047198 0
0.0983333364 -0.0286047198 0
0.0949999988 -0.0286047198 0
0.0916666687 -0.0286047198 0
0.088333331 -0.0286047198 0
0.0850000009 -0.0286047198 0
0.0816666633 -0.0286047198 0
0.0783333331 -0.0286047198 0
0.075000003 -0.0286047198 0
0.0716666654 -0.0286047198 0
0.0683333352 -0.0286047198 0
0.0649999976 -0.0286047198 0
0.0616666675 -0.0286047198 0
0.0583333336 -0.0286047198 0
0.0549999997 -0.0286047198 0
0.0516666658 -0.0286047198 0
0.0483333319 -0.0286047198 0
0.0450000018 -0.0286047198 0
0.0416666679 -0.0286047198 0
0.038333334 -0.0286047198 0
0.13666667 -0.0314914696 0
0.13333334 -0.0314914696 0
0.129999995 -0.0314914696 0
0.126666665 -0.0314914696 0
0.123333335 -0.0314914696 0
0.119999997 -0.0314914696 0
0.116666667 -0.0314914696 0
0.113333337 -0.0314914696 0
0.109999999 -0.0314914696 0
0.106666669 -0.0314914696 0
0.103333332 -0.0314914696 0
0.100000001 -0.0314914696 0
0.0966666639 -0.0314914696 0
0.0933333337 -0.0314914696 0
0.0900000036 -0.0314914696 0
0.086666666 -0.0314914696 0
0.0833333358 -0.0314914696 0
0.0799999982 -0.0314914696 0
0.0766666681 -0.0314914696 0
0.0733333305 -0.0314914696 0
0.0700000003 -0.0314914696 0
0.0666666701 -0.0314914696 0
0.0633333325 -0.0314914696 0
0.0599999987 -0.0314914696 0
0.0566666685 -0.0314914696 0
0.0533333346 -0.0314914696 0
0.0500000007 -0.0314914696 0
0.0466666669 -0.0314914696 0
0.043333333 -0.0314914696 0
0.0399999991 -0.0314914696 0
0.0366666652 -0.0314914696 0
0.135000005 -0.0343782231 0
0.13166666 -0.0343782231 0
0.12833333 -0.0343782231 0
0.125 -0.0343782231 0
0.12166667 -0.0343782231 0
0.118333332 -0.0343782231 0
0.115000002 -0.0343782231 0
0.111666664 -0.0343782231 0
0.108333334 -0.0343782231 0
0.104999997 -0.0343782231 0
0.101666667 -0.0343782231 0
0.0983333364 -0.0343782231 0
0.0949999988 -0.0343782231 0
0.0916666687 -0.0343782231 0
0.088333331 -0.0343782231 0
0.0850000009 -0.0343782231 0
0.0816666633 -0.0343782231 0
0.0783333331 -0.0343782231 0
0.075000003 -0.0343782231 0
0.0716666654 -0.0343782231 0
0.0683333352 -0.0343782231 0
0.0649999976 -0.0343782231 0
0.0616666675 -0.0343782231 0
0.0583333336 -0.0343782231 0
0.0549999997 -0.0343782231 0
0.0516666658 -0.0343782231 0
0.0483333319 -0.0343782231 0
0.0450000018 -0.0343782231 0
0.0416666679 -0.0343782231 0
0.038333334 -0.0343782231 0
0.0350000001 -0.0343782231 0
0.13333334 -0.0372649729 0
0.129999995 -0.0372649729 0
0.126666665 -0.0372649729 0
0.123333335 -0.0372649729 0
0.119999997 -0.0372649729 0
0.116666667 -0.0372649729 0
0.113333337 -0.0372649729 0
0.109999999 -0.0372649729 0
0.106666669 -0.0372649729 0
0.103333332 -0.0372649729 0
0.100000001 -0.0372649729 0
0.0966666639 -0.0372649729 0
0.0933333337 -0.0372649729 0
0.0900000036 -0.0372649729 0
0.086666666 -0.0372649729 0
0.0833333358 -0.0372649729 0
0.0799999982 -0.0372649729 0
0.0766666681 -0.0372649729 0
0.0733333305 -0.0372649729 0
0.0700000003 -0.0372649729 0
0.0666666701 -0.0372649729 0
0.0633333325 -0.0372649729 0
0.0599999987 -0.0372649729 0
0.0566666685 -0.0372649729 0
0.0533333346 -0.0372649729 0
0.0500000007 -0.0372649729 0
0.0466666669 -0.0372649729 0
0.043333333 -0.0372649729 0
0.0399999991 -0.0372649729 0
0.0366666652 -0.0372649729 0
0.0333333351 -0.0372649729 0
0.13166666 -0.0401517227 0
0.12833333 -0.0401517227 0
0.125 -0.0401517227 0
0.12166667 -0.0401517227 0
0.118333332 -0.0401517227 0
0.115000002 -0.0401517227 0
0.111666664 -0.0401517227 0
[...]
POINT_DATA 961
SCALARS Temp float 1
LOOKUP_TABLE default
337.95102658899407
288.0609830210668
250.13794380454436
224.1601637685459
207.73509430306635
198.10594198690427
192.84526067448357
190.1516131935162
188.85114637059834
188.2556362476307
187.99554568739572
187.88665527118485
187.84275699661242
187.82564939210917
187.81918374328333
187.81680646784866
187.8159639024889
187.8157065237544
187.81577299315842
187.8163747910255
187.8186677401305
187.82660418055877
187.8524634097347
187.9315574817124
188.1569637084369
188.75091272380493
190.18701012503752
193.35169167487462
199.67614244022016
211.1180127278989
230.23531977504638
288.06099957651
241.4227299740521
208.1946707966629
186.2041057855991
172.7233565159702
165.03874549776566
160.9448980587494
158.89504894718476
157.92466480868313
157.4878789119157
157.29995553881926
157.22230464880903
157.1913605302108
157.1794242181698
157.17495288883273
157.17332811505818
157.17276988937192
157.17265686852173
157.17293011895356
157.17416869402226
157.17859375652057
157.19335949126375
157.2397316316505
157.37596187409372
157.74766319100945
158.68262132923294
160.83553784574815
165.34715903746164
173.91605386335763
188.65302149867702
211.11803123507013
250.1379049933223
208.19465606830965
178.84606331191003
159.7494427422828
148.18713021774127
141.65436249857163
138.19480810061128
136.46877085124234
135.65311532997825
135.2861317290065
135.12816076920694
135.0628134847456
135.03673376267093
135.0266574388643
135.02287855393217
135.02150719441863
135.02105790149486
135.0210594532622
135.0216454298184
135.02392764511444
135.03173874544643
135.05683941376623
135.13256521544355
135.34570950487017
135.9015770846966
137.2356891378601
140.16433883832914
146.01478684976394
156.61032600446316
173.9160442120881
199.67614977674882
224.1601221156643
186.20408865709555
159.74944749995265
142.5562973366263
132.13330444953712
126.22599992208676
123.08430795399357
121.50923539026874
120.76116585439459
120.42292941797953
120.27665241410809
120.21588353261913
120.19153678920912
120.18209698510671
120.17854910320203
120.17726784544551
120.17688443421106
120.17703150353928
120.1780978846721
120.1819510386557
120.19461643031329
120.23372666762377
120.34686115158111
120.65162845573781
121.41145281185169
123.15443214700736
126.81449683930718
133.82135577544096
146.0147990553828
165.3471711056387
193.35168356447198
207.735064477559
172.72334569639142
148.1871272358211
132.13334290752616
122.3319515778131
116.73865992472196
113.7450717778958
112.2357632840256
111.51540958157366
111.18833504399257
111.04638127799404
110.9872312453608
110.96347340517742
110.954243881388
110.95077151186057
110.94953046600372
110.9492148519198
110.94957212267856
110.95132624317331
110.95732459035237
110.97625642198142
111.03235466023942
111.18788727245952
111.58921648462163
112.54800241709881
114.65880351035932
118.92437142939383
126.81449176101087
140.164335488378
160.83553520795056
190.18701660205156
198.10591578903274
165.03876713218716
141.65439080205584
126.2259770882337
116.73865175209595
111.2923707149836
108.36349359732799
106.88117963910014
106.17157835091848
105.84861802203166
105.7081872177872
105.64958421918274
105.62601810863316
105.61685611765188
105.61341270847072
105.61220384243343
105.6119756645092
105.61261906199682
105.61527102053424
105.62391600861186
105.65011255490488
105.72462249622839
105.92289970567074
106.41440792161065
107.54477870850819
109.94812728000927
114.65880213897998
123.1544331215764
137.23569565952113
158.68260271524903
188.75090454800522
192.84526270769945
160.94491234434219
138.19484087156528
123.08428082007738
113.74506295308679
108.36349197659929
105.46134349147857
103.98955936432205
103.28393515188
102.9624260685785
102.8225096384482
102.76408448332224
102.74057943891906
102.7314396024213
102.72801219378438
102.72683936296016
102.72672523275348
102.72772688157603
102.73144223500533
102.74303379634782
102.77679082418143
102.86913608588218
103.10580371199795
103.67218975358227
104.93411500442453
107.54477698609888
112.5479981460872
121.41144598558961
135.90157400353482
157.74766049189427
188.15697292758537
190.15162395919404
158.8950685284688
136.4687254582901
121.50921305159943
112.23576049691695
106.88118395028614
103.98955852407316
102.52170272539232
101.81749008357603
101.49647509499287
101.35672619766689
101.29835720206938
101.27487143090659
101.26574122987188
101.26232874959452
101.26119945049629
101.2612223690365
101.26263263744659
101.26748827009186
101.28203573510983
101.3228583312915
101.43067101909372
101.69815007827228
102.32007229820665
103.67218906765211
106.41440709976915
111.58921696473604
120.65162903595397
135.3456977074439
157.3759437977107
187.93154783050235
188.8511489471007
157.9246925778599
135.6530727352179
120.76115049076282
111.5154099442872
106.17157437729921
103.28393475863112
101.81749194292208
101.11376448952701
100.7929121052032
100.65321634850692
100.59486489722254
100.57138574904437
100.56226198128553
100.55886589661876
100.55778718479975
100.55796105849019
100.5597948559339
100.56575711515421
100.58297830237734
100.62973761651844
100.74959046197455
101.03925376016738
101.69815064596908
103.10580354900965
105.92289895194958
111.1878863970159
120.34685775878663
135.1325684412268
157.2397373280087
187.85248156511682
188.25566406714242
157.487816240354
135.2861122461244
120.4229273854371
111.1883438629509
105.84861773952123
102.96242824827902
101.49647497768012
100.79291193254221
100.47211113785255
100.33243233927702
100.27408649046342
100.25061064617677
100.24149309887139
100.23811507870268
100.23709026692332
100.2374158020041
100.23964819573494
100.24658217712476
100.26598675500338
100.31724216597118
100.44553728331734
100.74959014889268
101.4306708255334
102.86913608168871
105.7246223828431
111.03235489678389
120.23371435965012
135.05682682261778
157.19334372869295
187.8265949486511
187.99560106649125
157.29990873473525
135.1281524803887
120.27665709583985
111.04637668115653
105.70818842722576
102.82251280704448
101.35672624015893
100.65321671032805
100.33243232583217
100.1927588926116
100.1344152352973
100.11094206807303
100.10183104746633
100.0984718563621
100.09749974326314
100.09796415415656
100.10053734905264
100.10824455585731
100.12926211349736
100.18359587846886
100.3172423544421
100.6297377194485
101.32285800201538
102.77679019654134
105.65011177961809
110.97625422756184
120.19461528474187
135.0317428910254
157.1786019717804
187.81865467482191
187.88660032792325
157.2222773948182
135.06281436220343
120.21589464201057
110.98722728846657
105.64958626812854
102.76408315035053
101.29835745303735
100.59486426957446
100.27408650244968
100.13441534247278
100.07607338140346
100.0526031111159
100.0434989898137
100.04015805861444
100.03923325035497
100.03981368947241
100.04265185657285
100.05091768818194
100.07301633749154
100.12926223772772
100.26598686833593
100.58297817086526
101.28203633698806
102.74303498867233
105.62391905834255
110.95732178250059
120.18194688958172
135.02392847009978
157.17416980793791
187.8163884894299
187.84273515830375
157.19136024216132
135.0367511030058
120.19152959111182
110.96347514773139
105.62602422482237
102.74057907060015
101.27487258326295
100.57138539990136
100.25061079091573
100.11094200366915
100.0526030790404
100.02913690840126
100.0200404174792
100.01671640924428
100.01583094964619
100.01650018968486
100.01952625172918
100.02815951994455
100.05091761996037
100.10824452853568
100.2465823384395
100.56575663512874
101.26748805610404
102.73144173455283
105.61526987419968
110.95132521199992
120.17809667520005
135.021650817506
157.17290833700312
187.81577599799638
187.82563192372646
157.1794260051533
135.0266785838843
120.18208924314558
110.95424596533196
105.61685291058323
102.7314396517619
101.26574041792567
100.56226177420446
100.24149333602509
100.1018309572978
100.04349897925107
100.0200404113276
100.01095380621373
100.00764591943783
100.00679168515529
100.00752385630719
100.01067206085817
100.01952624288778
100.04265187368986
100.10053732973131
100.23964829284101
100.55979481303972
101.26263325412542
102.72772827847946
105.61261756195348
110.94956966424937
120.17702797553278
135.02105991786976
157.17266048318336
187.81570623189415
187.81918461955803
157.17497171265893
135.02286771921624
120.17854916209672
110.95078043834374
105.61341164513482
102.72801443919283
101.26232847156956
100.55886586634338
100.23811502976643
100.0984718470974
100.04015808064025
100.01671640317869
100.00764592377107
100.00435599264658
100.0035272181482
100.00430196799739
100.00752385199077
100.01650017569598
100.03981366357927
100.09796416093737
100.23741573251785
100.55796062274923
101.26122215082376
102.72672458624777
105.61197519084655
110.94921434341563
120.17688412547412
135.02104521199837
157.17276648181468
187.81595655429373
187.8168063377476
157.17334826038876
135.02149551910136
120.17726924461456
110.94952405586507
105.61220344963338
102.72683748989688
101.26119947815825
100.55778740606397
100.23709019482273
100.09749975171479
100.03923319654884
100.01583094992213
100.00679167792089
100.00352721810397
100.00272278796602
100.00352721968378
100.00679168032735
100.01583096570184
100.0392332205019
100.09749971640129
100.23709038333168
100.55778717165009
101.26120015833217
102.72683856500657
105.61220249649354
110.94952916202814
120.1772645789616
135.02151160770325
157.17331954996558
187.8168094585168
187.8159826066319
157.17274657177967
135.0210626689188
120.17689764453843
110.94921249986504
105.61197941619815
102.7267246202289
101.26122289909202
100.55796061900871
100.23741591125216
100.09796426178276
100.039813658905
100.01650020763009
100.00752385343631
100.00430196947258
100.00352722095907
100.00435599532476
100.00764591489099
100.01671640825417
100.04015804089671
100.09847177036093
100.23811502126618
100.55886549561231
101.26232840760409
102.72801211738451
105.61341257077251
110.95077190865469
120.1785367739849
135.02287622880255
157.17493817563573
187.81917566485424
187.81573702876892
157.1726393924006
135.02106788090006
120.17701930334445
110.94957121749755
105.6126152781325
102.72772679331993
101.26263369273039
100.55979437504838
100.23964836945319
100.10053727091427
100.04265183501705
100.01952623668554
100.01067205670063
100.007523859166
100.00679168646246
100.00764592038365
100.01095381224232
100.02004042018693
100.0434989623119
100.10183103247184
100.2414932154142
100.56226206229
101.265740867754
102.73143899529212
105.61685524731942
110.9542418534285
120.1820963571895
135.0266503511632
157.17941592173003
187.82565020834897
187.81574147352853
157.17292084971638
135.02166026659327
120.1780857818828
110.95132778721293
105.61526721620014
102.7314418666971
101.26748737050876
100.5657567347632
100.24658244006919
100.10824445981032
100.05091767364604
100.02815951163217
100.01952624711546
100.0165001889731
100.01583094895543
100.01671640680767
100.02004042310394
100.0291368992566
100.052603067999
100.11094204854444
100.25061074180127
100.57138562657204
101.27487195187224
102.740580567725
105.6260210988176
110.96347034153938
120.19153845988461
135.03673333390543
157.19136007802604
187.8427662048914
187.81636830279706
157.1741805361984
135.02391322990576
120.18194855484256
110.95731714661422
105.62391607614659
102.74303582309116
101.28203542020877
100.5829783517498
100.26598674102846
100.12926215085156
100.07301632264873
100.05091767649328
100.04265186480745
100.03981369515084
100.03923325112933
100.04015806045776
100.04349899269648
100.05260310237985
100.07607341000127
100.13441528318315
100.27408661231837
100.59486441427362
101.29835697314635
102.76408394804464
105.64958309462921
110.98723018207059
120.21587431782325
135.06280641386363
157.2222950006691
187.8866552991794
187.81866318497106
157.17861050593115
135.0317237985999
120.19461852464156
110.9762492303595
105.65011203993888
102.77678882656598
101.32285824986106
100.62973796233759
100.31724220563132
100.1835960103879
100.12926210413522
100.108244546629
100.1005373453102
100.09796414750674
100.09749974439592
100.09847186611795
100.10183104035198
100.1109420669138
100.13441525230584
100.1927588613839
100.33243240313922
100.6532163414822
101.35672683150841
102.82251085399687
105.70818542581564
111.0463819432873
120.27664778542433
135.1281602768215
157.29995532041704
187.99554239953937
187.8265988074349
157.1933167864166
135.05682839341102
120.23370638691927
111.03234972225636
105.72462405496313
102.86913435003304
101.43067124798985
100.7495899009684
100.44553710360202
100.31724213158473
100.26598672058535
100.24658219871915
100.23964822814065
100.23741580682271
100.23709026645477
100.23811507826952
100.24149309105326
100.25061065790031
100.27408646512733
100.33243238933385
100.47211117294104
100.79291167011542
101.49647531369122
102.96242662666695
105.84862000639014
111.18833371451528
120.42292840296369
135.2861390548871
157.48788922217472
188.2556532342058
187.85250773032394
157.23972704758822
135.13258574964652
120.34685771536417
111.18789203038978
105.92289938021177
103.10580588486275
101.69815233414992
101.03925429690032
100.74959146845201
100.6297382858296
100.5829789163363
100.56575771920524
100.55979543796998
100.55796168069274
100.5577878376809
100.55886649203673
100.56226261227067
100.57138636993967
100.5948654688066
100.6532169470596
100.79291242224501
101.11376510373277
101.81749104561801
103.28393303424141
106.17157682853032
111.51540410069478
120.76115610816686
135.6531069971369
157.92463854280246
188.85112917577348
187.9315405317989
157.37596663850428
135.34569870677203
120.65162930311202
111.58922541900695
106.41440750483395
103.67219230393204
102.32007365209851
101.69815126088103
101.43067234298532
101.32285958050173
101.2820371288969
101.26748974673012
101.26263399532868
101.26122369679655
101.26120077150763
101.2623300651711
101.26574256866223
101.27487275476071
101.298358583844
101.35672747121455
101.49647621684895
101.81749138259259
102.52170287184954
103.98956053779308
106.88117879280296
112.23576138294911
121.5092293154521
136.46876864547215
158.89504266732874
190.15160995415206
188.1569565640594
157.74767866036765
135.90156937458522
121.41145244873958
112.54799722944391
107.54478046213563
104.93411789661694
103.67219069097219
103.10580574197164
102.86913762255267
102.77679218140048
102.74303509929541
102.73144344383327
102.72772825163602
102.72672671672038
102.72684064991833
102.7280136274917
102.73144098912132
102.74058075959141
102.76408587864977
102.82251093365082
102.9624275450465
103.2839360156122
103.98956038335022
105.46134723250968
108.36349221617508
113.74507128295329
123.08430826397634
138.19480470662788
160.9448942395671
192.84526481386746
188.75091187572312
158.68258774638736
137.23568488621794
123.15443891318996
114.65879771427964
109.9481291308655
107.54477817807681
106.41440745173308
105.92289959792431
105.72462224238134
105.65011274427319
105.62391653676043
105.61527118148558
105.61261911322315
105.61197567532085
105.61220388438814
105.61341279631596
105.61685622292075
105.62601837448065
105.64958423347807
105.70818733731782
105.8486183557163
106.17157825436682
106.88118092509661
108.36349188102648
111.29237343314821
116.73866489785473
126.22600760349155
141.65437216990847
165.03875053280942
198.10591914839742
190.1870159277584
160.83551108675329
140.16433172314953
126.81447968388136
118.9243682376513
114.65880057172969
112.54799663761654
111.58921292547909
111.18788322740909
111.03235017548673
110.97625175409588
110.95731959904539
110.95132172900307
110.94956791623818
110.94921013911136
110.94952616451616
110.95076706169777
110.95423928268575
110.96346895433048
110.98722679486949
111.0463768852352
111.18833028959477
111.51540563045621
112.23576072168854
113.74506752029119
116.73866096968042
122.33196408033085
132.13331165570426
148.1871042691144
172.72333201820206
207.73507089792034
193.35169304871542
165.34718163877352
146.0148287129091
133.82136827638294
126.81451653401855
123.15444727343163
121.41146747808784
120.6516433231003
120.34687552722212
120.23374202335178
120.19463257206345
120.18196635720457
120.17811290840241
120.17704639113478
120.17689951391321
120.1772829638377
120.17856427584839
120.18211249853711
120.19155169968103
120.21589874665885
120.2766677508996
120.42294426793083
120.76118108533375
121.50924869362676
123.08432291723813
126.22601902341063
132.1333296003933
142.5562812819486
159.7494213264099
186.20406337047467
224.16012766798653
199.67615867517827
173.91607487398932
156.61034046399217
146.01480996165006
140.16436055802848
137.23570572020992
135.90159651116736
135.3457284073606
135.13258335126577
135.05685714568625
135.03175564094525
135.0239454696853
135.02166384115776
135.02107701793904
135.02107625402257
135.0215252214677
135.02289631016885
135.02667535458215
135.0367517848819
135.06283138267347
135.12817814722567
135.28615030021058
135.65313389149253
136.4687873002434
138.19482656205045
141.65438427567435
148.18711706571278
159.74942655367096
178.84603967727682
208.1946329279878
250.1379104607062
211.1180331222002
188.6530446967669
173.91605717384763
165.34717191116178
160.83554561260172
158.68262877742362
157.74767097736205
157.37596900537298
157.23974063121338
157.1933694710827
157.1786023329845
157.17417685633436
157.17293804131717
157.17266537565672
157.17277829036922
157.17333661479682
157.17496186855843
157.1794322067452
157.19136912736252
157.22231329673622
157.299963779645
157.48788717139263
157.9246722837799
158.8950578642588
160.9449090502208
165.03875929019966
172.72333761554287
186.20407472642023
208.1946289274215
241.4226883879902
288.0609188601303
230.2353359511743
211.1180076487332
199.67614749174322
193.3516958903714
190.18700801285556
188.75091430018352
188.15696428420463
187.93155872585862
187.85246412388918
187.82660235060075
187.81866763551193
187.8163751502059
187.81577308147396
187.81570722522932
187.8159641748548
187.81680674970846
187.81918324878444
187.8256500018653
187.84275702444606
187.88665476502462
187.99554651050371
188.25563711303664
188.85114629787216
190.15161373947703
192.84526086347435
198.10591523512545
207.73506627368246
224.16012268891308
250.1378896350574
288.06090115851777
337.9506261320706
