# vtk DataFile Version 2.0
Unstructured Grid Example
ASCII
DATASET UNSTRUCTURED_GRID

POINTS 961 float
0.150000006 -0.00839745998 0
0.146666661 -0.00839745998 0
0.143333331 -0.00839745998 0
0.140000001 -0.00839745998 0
0.13666667 -0.00839745998 0
0.13333334 -0.00839745998 0
0.129999995 -0.00839745998 0
0.126666665 -0.00839745998 0
0.123333335 -0.00839745998 0
0.119999997 -0.00839745998 0
0.116666667 -0.00839745998 0
0.113333337 -0.00839745998 0
0.109999999 -0.00839745998 0
0.106666669 -0.00839745998 0
0.103333332 -0.00839745998 0
0.100000001 -0.00839745998 0
0.0966666639 -0.00839745998 0
0.0933333337 -0.00839745998 0
0.0900000036 -0.00839745998 0
0.086666666 -0.00839745998 0
0.0833333358 -0.00839745998 0
0.0799999982 -0.00839745998 0
0.0766666681 -0.00839745998 0
0.0733333305 -0.00839745998 0
0.0700000003 -0.00839745998 0
0.0666666701 -0.00839745998 0
0.0633333325 -0.00839745998 0
0.0599999987 -0.00839745998 0
0.0566666685 -0.00839745998 0
0.0533333346 -0.00839745998 0
0.0500000007 -0.00839745998 0
0.148333326 -0.0112842107 0
0.144999996 -0.0112842107 0
0.141666666 -0.0112842107 0
0.138333336 -0.0112842107 0
0.135000005 -0.0112842107 0
0.13166666 -0.0112842107 0
0.12833333 -0.0112842107 0
0.125 -0.0112842107 0
0.12166667 -0.0112842107 0
0.118333332 -0.0112842107 0
0.115000002 -0.0112842107 0
0.111666664 -0.0112842107 0
0.108333334 -0.0112842107 0
0.104999997 -0.0112842107 0
0.101666667 -0.0112842107 0
0.0983333364 -0.0112842107 0
0.0949999988 -0.0112842107 0
0.0916666687 -0.0112842107 0
0.088333331 -0.0112842107 0
0.0850000009 -0.0112842107 0
0.0816666633 -0.0112842107 0
0.0783333331 -0.0112842107 0
0.075000003 -0.0112842107 0
0.0716666654 -0.0112842107 0
0.0683333352 -0.0112842107 0
0.0649999976 -0.0112842107 0
0.0616666675 -0.0112842107 0
0.0583333336 -0.0112842107 0
0.0549999997 -0.0112842107 0
0.0516666658 -0.0112842107 0
0.0483333319 -0.0112842107 0
0.146666661 -0.0141709624 0
0.143333331 -0.0141709624 0
0.140000001 -0.0141709624 0
0.13666667 -0.0141709624 0
0.13333334 -0.0141709624 0
0.129999995 -0.0141709624 0
0.126666665 -0.0141709624 0
0.123333335 -0.0141709624 0
0.119999997 -0.0141709624 0
0.116666667 -0.0141709624 0
0.113333337 -0.0141709624 0
0.109999999 -0.0141709624 0
0.106666669 -0.0141709624 0
0.103333332 -0.0141709624 0
0.100000001 -0.0141709624 0
0.0966666639 -0.0141709624 0
0.0933333337 -0.0141709624 0
0.0900000036 -0.0141709624 0
0.086666666 -0.0141709624 0
0.0833333358 -0.0141709624 0
0.0799999982 -0.0141709624 0
0.0766666681 -0.0141709624 0
0.0733333305 -0.0141709624 0
0.0700000003 -0.0141709624 0
0.0666666701 -0.0141709624 0
0.0633333325 -0.0141709624 0
0.0599999987 -0.0141709624 0
0.0566666685 -0.0141709624 0
0.0533333346 -0.0141709624 0
0.0500000007 -0.0141709624 0
0.0466666669 -0.0141709624 0
0.144999996 -0.0170577131 0
0.141666666 -0.0170577131 0
0.138333336 -0.0170577131 0
0.135000005 -0.0170577131 0
0.13166666 -0.0170577131 0
0.12833333 -0.0170577131 0
0.125 -0.0170577131 0
0.12166667 -0.0170577131 0
0.118333332 -0.0170577131 0
0.115000002 -0.0170577131 0
0.111666664 -0.0170577131 0
0.108333334 -0.0170577131 0
0.104999997 -0.0170577131 0
0.101666667 -0.0170577131 0
0.0983333364 -0.0170577131 0
0.0949999988 -0.0170577131 0
0.0916666687 -0.0170577131 0
0.088333331 -0.0170577131 0
0.0850000009 -0.0170577131 0
0.0816666633 -0.0170577131 0
0.0783333331 -0.0170577131 0
0.075000003 -0.0170577131 0
0.0716666654 -0.0170577131 0
0.0683333352 -0.0170577131 0
0.0649999976 -0.0170577131 0
0.0616666675 -0.0170577131 0
0.0583333336 -0.0170577131 0
0.0549999997 -0.0170577131 0
0.0516666658 -0.0170577131 0
0.0483333319 -0.0170577131 0
0.0450000018 -0.0170577131 0
0.143333331 -0.0199444648 0
0.140000001 -0.0199444648 0
0.13666667 -0.0199444648 0
0.13333334 -0.0199444648 0
0.129999995 -0.0199444648 0
0.126666665 -0.0199444648 0
0.123333335 -0.0199444648 0
0.119999997 -0.0199444648 0
0.116666667 -0.0199444648 0
0.113333337 -0.0199444648 0
0.109999999 -0.0199444648 0
0.106666669 -0.0199444648 0
0.103333332 -0.0199444648 0
0.100000001 -0.0199444648 0
0.0966666639 -0.0199444648 0
0.0933333337 -0.0199444648 0
0.0900000036 -0.0199444648 0
0.086666666 -0.0199444648 0
0.0833333358 -0.0199444648 0
0.0799999982 -0.0199444648 0
0.0766666681 -0.0199444648 0
0.0733333305 -0.0199444648 0
0.0700000003 -0.0199444648 0
0.0666666701 -0.0199444648 0
0.0633333325 -0.0199444648 0
0.0599999987 -0.0199444648 0
0.0566666685 -0.0199444648 0
0.0533333346 -0.0199444648 0
0.0500000007 -0.0199444648 0
0.0466666669 -0.0199444648 0
0.043333333 -0.0199444648 0
0.141666666 -0.0228312165 0
0.138333336 -0.0228312165 0
0.135000005 -0.0228312165 0
0.13166666 -0.0228312165 0
0.12833333 -0.0228312165 0
0.125 -0.0228312165 0
0.12166667 -0.0228312165 0
0.118333332 -0.0228312165 0
0.115000002 -0.0228312165 0
0.111666664 -0.0228312165 0
0.108333334 -0.0228312165 0
0.104999997 -0.0228312165 0
0.101666667 -0.0228312165 0
0.0983333364 -0.0228312165 0
0.0949999988 -0.0228312165 0
0.0916666687 -0.0228312165 0
0.088333331 -0.0228312165 0
0.0850000009 -0.0228312165 0
0.0816666633 -0.0228312165 0
0.0783333331 -0.0228312165 0
0.075000003 -0.0228312165 0
0.0716666654 -0.0228312165 0
0.0683333352 -0.0228312165 0
0.0649999976 -0.0228312165 0
0.0616666675 -0.0228312165 0
0.0583333336 -0.0228312165 0
0.0549999997 -0.0228312165 0
0.0516666658 -0.0228312165 0
0.0483333319 -0.0228312165 0
0.0450000018 -0.0228312165 0
0.0416666679 -0.0228312165 0
0.140000001 -0.0257179681 0
0.13666667 -0.0257179681 0
0.13333334 -0.0257179681 0
0.129999995 -0.0257179681 0
0.126666665 -0.0257179681 0
0.123333335 -0.0257179681 0
0.119999997 -0.0257179681 0
0.116666667 -0.0257179681 0
0.113333337 -0.0257179681 0
0.109999999 -0.0257179681 0
0.106666669 -0.0257179681 0
0.103333332 -0.0257179681 0
0.100000001 -0.0257179681 0
0.0966666639 -0.0257179681 0
0.0933333337 -0.0257179681 0
0.0900000036 -0.0257179681 0
0.086666666 -0.0257179681 0
0.0833333358 -0.0257179681 0
0.0799999982 -0.0257179681 0
0.0766666681 -0.0257179681 0
0.0733333305 -0.0257179681 0
0.0700000003 -0.0257179681 0
0.0666666701 -0.0257179681 0
0.0633333325 -0.0257179681 0
0.0599999987 -0.0257179681 0
0.0566666685 -0.0257179681 0
0.0533333346 -0.0257179681 0
0.0500000007 -0.0257179681 0
0.0466666669 -0.0257179681 0
0.043333333 -0.0257179681 0
0.0399999991 -0.0257179681 0
0.138333336 -0.0286047198 0
0.135000005 -0.0286047198 0
0.13166666 -0.0286047198 0
0.12833333 -0.0286047198 0
0.125 -0.0286047198 0
0.12166667 -0.0286047198 0
0.118333332 -0.0286047198 0
0.115000002 -0.0286047198 0
0.111666664 -0.0286047198 0
0.108333334 -0.0286047198 0
0.104999997 -0.0286047198 0
0.101666667 -0.0286047198 0
0.0983333364 -0.0286047198 0
0.0949999988 -0.0286047198 0
0.0916666687 -0.0286047198 0
0.088333331 -0.0286047198 0
0.0850000009 -0.0286047198 0
0.0816666633 -0.0286047198 0
0.0783333331 -0.0286047198 0
0.075000003 -0.0286047198 0
0.0716666654 -0.0286047198 0
0.0683333352 -0.0286047198 0
0.0649999976 -0.0286047198 0
0.0616666675 -0.0286047198 0
0.0583333336 -0.0286047198 0
0.0549999997 -0.0286047198 0
0.0516666658 -0.0286047198 0
0.0483333319 -0.0286047198 0
0.0450000018 -0.0286047198 0
0.0416666679 -0.0286047198 0
0.038333334 -0.0286047198 0
0.13666667 -0.0314914696 0
0.13333334 -0.0314914696 0
0.129999995 -0.0314914696 0
0.126666665 -0.0314914696 0
0.123333335 -0.0314914696 0
0.119999997 -0.0314914696 0
0.116666667 -0.0314914696 0
0.113333337 -0.0314914696 0
0.109999999 -0.0314914696 0
0.106666669 -0.0314914696 0
0.103333332 -0.0314914696 0
0.100000001 -0.0314914696 0
0.0966666639 -0.0314914696 0
0.0933333337 -0.0314914696 0
0.0900000036 -0.0314914696 0
0.086666666 -0.0314914696 0
0.0833333358 -0.0314914696 0
0.0799999982 -0.0314914696 0
0.0766666681 -0.0314914696 0
0.0733333305 -0.0314914696 0
0.0700000003 -0.0314914696 0
0.0666666701 -0.0314914696 0
0.0633333325 -0.0314914696 0
0.0599999987 -0.0314914696 0
0.0566666685 -0.0314914696 0
0.0533333346 -0.0314914696 0
0.0500000007 -0.0314914696 0
0.0466666669 -0.0314914696 0
0.043333333 -0.0314914696 0
0.0399999991 -0.0314914696 0
0.0366666652 -0.0314914696 0
0.135000005 -0.0343782231 0
0.13166666 -0.0343782231 0
0.12833333 -0.0343782231 0
0.125 -0.0343782231 0
0.12166667 -0.0343782231 0
0.118333332 -0.0343782231 0
0.115000002 -0.0343782231 0
0.111666664 -0.0343782231 0
0.108333334 -0.0343782231 0
0.104999997 -0.0343782231 0
0.101666667 -0.0343782231 0
0.0983333364 -0.0343782231 0
0.0949999988 -0.0343782231 0
0.0916666687 -0.0343782231 0
0.088333331 -0.0343782231 0
0.0850000009 -0.0343782231 0
0.0816666633 -0.0343782231 0
0.0783333331 -0.0343782231 0
0.075000003 -0.0343782231 0
0.0716666654 -0.0343782231 0
0.0683333352 -0.0343782231 0
0.0649999976 -0.0343782231 0
0.0616666675 -0.0343782231 0
0.0583333336 -0.0343782231 0
0.0549999997 -0.0343782231 0
0.0516666658 -0.0343782231 0
0.0483333319 -0.0343782231 0
0.0450000018 -0.0343782231 0
0.0416666679 -0.0343782231 0
0.038333334 -0.0343782231 0
0.0350000001 -0.0343782231 0
0.13333334 -0.0372649729 0
0.129999995 -0.0372649729 0
0.126666665 -0.0372649729 0
0.123333335 -0.0372649729 0
0.119999997 -0.0372649729 0
0.116666667 -0.0372649729 0
0.113333337 -0.0372649729 0
0.109999999 -0.0372649729 0
0.106666669 -0.0372649729 0
0.103333332 -0.0372649729 0
0.100000001 -0.0372649729 0
0.0966666639 -0.0372649729 0
0.0933333337 -0.0372649729 0
0.0900000036 -0.0372649729 0
0.086666666 -0.0372649729 0
0.0833333358 -0.0372649729 0
0.0799999982 -0.0372649729 0
0.0766666681 -0.0372649729 0
0.0733333305 -0.0372649729 0
0.0700000003 -0.0372649729 0
0.0666666701 -0.0372649729 0
0.0633333325 -0.0372649729 0
0.0599999987 -0.0372649729 0
0.0566666685 -0.0372649729 0
0.0533333346 -0.0372649729 0
0.0500000007 -0.0372649729 0
0.0466666669 -0.0372649729 0
0.043333333 -0.0372649729 0
0.0399999991 -0.0372649729 0
0.0366666652 -0.0372649729 0
0.0333333351 -0.0372649729 0
0.13166666 -0.0401517227 0
0.12833333 -0.0401517227 0
0.125 -0.0401517227 0
0.12166667 -0.0401517227 0
0.118333332 -0.0401517227 0
0.115000002 -0.0401517227 0
0.111666664 -0.0401517227 0
[...]
POINT_DATA 961
SCALARS Temp float 1
LOOKUP_TABLE default
422.7341479041444
374.6319353507271
333.91580061748147
301.34108019698374
276.36437100700186
257.99598307537605
245.03365203434805
236.25116184428114
230.53327105537358
226.95239486872944
224.79261394430202
223.53631321118522
222.8305337166489
222.4470644914821
222.24541196895194
222.14307031243652
222.09407531395635
222.075069633139
222.07765695998964
222.10615070016001
222.18071280666535
222.3467586744827
222.69212225817597
223.37313352306623
224.64870813323938
226.9176695127445
230.7490884451568
236.89127785164905
246.2466177081569
259.8140837002624
278.8491588458843
374.6319499350378
328.00795949032533
290.0020605626246
260.1886397589512
237.7461797779231
221.53189085210008
210.28473927325228
202.78958296496214
197.98681577246214
195.02436349795275
193.26317532463997
192.25262435610068
191.69220055863187
191.39145570675652
191.2353256723779
191.15755655135496
191.12233136483852
191.11302303381353
191.12691093680814
191.17535979639925
191.28987033835529
191.5352549599582
192.0314228382539
192.98415636823938
194.7223078944393
197.73396485066763
202.68865610439582
210.4301097527622
221.927496467565
238.19190210795884
259.8141033724306
333.9157546224044
290.0020392435655
254.69931610253434
227.39286861027082
207.0897959581798
192.582109218721
182.61710261843874
176.0336333787216
171.84677361410598
169.28096030791176
167.7639648644526
166.89755113260566
166.41893011564727
166.16299719089722
166.0307886938634
165.9659252409272
165.9387873563048
165.93736930121264
165.96394901849516
166.03746075797986
166.20232530455868
166.54513670087587
167.22033654750058
168.48414142497109
170.73220243536878
174.53104857957717
180.6284306097907
189.9260551465061
203.40055160334938
221.9274871245509
246.24662803862185
301.34102300421534
260.18860901277645
227.39286918055603
202.217826996244
183.61448464753602
170.38402682529565
161.3270911393494
155.35684199401538
151.56454432073377
149.24132639514906
147.86725293144255
147.08175068195885
146.64728234439553
146.41472783460804
146.2948046922955
146.23696629867493
146.21550103580114
146.22199826930463
146.26365768712716
146.36763128696208
146.59237530182313
147.04730596760027
147.92123849901913
149.51758981355724
152.28993649826944
156.86608136951028
164.04488754033846
174.7496529208435
189.9260708743713
210.4301228739379
236.8912693656273
276.3643185405003
237.74615159150792
207.08978047894266
183.61455255590013
166.28622657428903
153.96144440154168
145.51557612185738
139.9380773169598
136.38693946972262
134.2055337322666
132.91154505940187
132.16960048261816
131.75805410070572
131.5373324495701
131.42374828305506
131.3702077567361
131.35369085397343
131.36896007651325
131.42824861111308
131.56732576577068
131.85895434067805
132.4347290336185
133.51498704145087
135.44351911752423
138.71918213197682
144.0116885079965
152.1462810687135
164.0448806902216
180.62842589344203
202.68865445652654
230.74909427453835
257.995930535408
221.53192723968914
192.58215719956698
170.38399545411121
153.9614321446302
142.246886060242
134.19271377132023
128.85533320731707
125.44513256075835
123.34312331629845
122.09219040790539
121.37279020144527
120.97274424119757
120.75792683719274
120.64782257419819
120.59747589892277
120.5859553637492
120.6110323546485
120.69000584919293
120.86717999994389
121.22889757104949
121.92668463698737
123.20743897724293
125.44637335598762
129.17397006336603
135.08439225848008
144.01168540277317
156.8660827132504
174.5310555244867
197.73394355557562
226.91766368182812
245.03366149560435
210.2847627031065
182.61714927302214
161.327054285897
145.51556146604983
134.1927099439921
126.37826461714269
121.18134824571717
117.8500904018734
115.79075832361733
114.56208326328621
113.85394201046108
113.45952410216015
113.2477123085645
113.13980927139052
113.09231048799508
113.08607373511293
113.1217464973471
113.22149494282344
113.4375338177793
113.86816355654824
114.68143284739163
116.14473687698498
118.65540329157339
122.76336315656232
129.1739662738428
138.71917419716186
152.28992499946446
170.73220102193198
194.7223058764642
224.6487168057718
236.25117749685134
202.7896101794286
176.03357680707114
155.35680928798118
139.93807686377227
128.85534427168966
121.18134554332319
116.06320982514957
112.77442226948324
110.73717038098785
109.51959255403592
108.81691023950614
108.4252329553676
108.21508376290717
108.10886009235834
108.06415160399625
108.06341553516225
108.1099657871237
108.23036818807097
108.48366437228451
108.97790292479851
109.89373965844698
111.51298716522356
114.24687905091197
118.65540118493453
125.44637032336117
135.44352100656468
149.5175911062476
168.48412682242036
192.98413706550772
223.37312344828666
230.5332789845974
197.98684964877077
171.8467289410948
151.56452649489194
136.3869418808097
125.44512262641638
117.8500879189081
112.77442987191968
109.50765230133699
107.48141984264073
106.26920533701991
105.56912229889782
105.1788278141194
104.96975165464707
104.86500784367672
104.82307598470177
104.82782964327811
104.88493009184576
105.0246629156719
105.31154019318032
105.860950054029
106.86236752552465
108.60676327979189
111.51298916546364
116.14473756337806
123.20743838600097
133.51498566154075
147.92123424768562
167.22034020838905
192.03142987466222
222.69214115255994
226.952432463973
195.02429931175578
169.28093704949325
149.24132270616707
134.2055463087836
123.34312225704224
115.79076401914449
110.73716854990825
107.4814183900323
105.4605155894433
104.25084168560895
103.55201138372594
103.16249448917537
102.9542444335395
102.85088895132101
102.81164843604981
102.82160365008673
102.88835766980563
103.04512618154783
103.36048392315205
103.9549101064786
105.02349611161644
106.86236606899682
109.8937393307478
114.68143253617664
121.92668396185823
132.43472860528487
147.0472884873076
166.54512189790404
191.5352380964444
222.34675021405565
224.79267369366826
193.26312487244908
167.76395176456197
147.86725870103842
132.9115343815353
122.09219165987636
114.56209089943977
109.51959289578764
106.26920722615311
104.2508415177497
103.04238242289763
102.3442107435233
101.95522627525897
101.7477035872472
101.64566083144322
101.60892298538937
101.62354633463212
101.69863697142011
101.86955621595008
102.20766718256318
102.83668461775397
103.95491176514807
105.86095051864599
108.9779015992211
113.86816144667806
121.22889629798954
131.85895141063972
146.59237345338482
166.20233057550917
191.28987884998102
222.18069955402387
223.53625259071882
192.25259119572283
166.89754872590632
147.08176310776165
132.16959134174746
121.37279443758153
113.85393740127147
108.8169111659818
105.56911892436611
103.55201134090102
102.34421201844428
101.64648783099115
101.25796974079594
101.0511449668098
100.95033039447429
100.91582346198557
100.9344219671944
101.01631759791152
101.19832989147025
101.55358636203707
102.20766844505053
103.36048483431676
105.31153954172498
108.4836672450145
113.43753786763688
120.86718687320237
131.5673208186272
146.36762530694938
166.0374620531246
191.17536171925573
222.10616468320907
222.83050464714043
191.6921941663056
166.41894727601078
146.6472685738891
131.7580561548774
120.97275683056377
113.45952310760352
108.42523705833474
105.17882623989306
103.16249564039394
101.95522555455719
101.25796931311594
100.86997658401066
100.66387969280346
100.56421674500477
100.53163681300393
100.55346689737334
100.64063125550076
100.83086814359974
101.19832886984403
101.86955588945767
103.04512746999788
105.02466044518017
108.23036726066826
113.22149337761921
120.69000350662408
131.42824689590338
146.26365609871866
165.96395577670665
191.12688818296135
222.07766081132758
222.4470410038
191.3914539465417
166.1630201897607
146.4147155568824
131.53733644608275
120.7579189299755
113.24771289169534
108.2150805352399
104.96975063167895
102.95424617154029
101.74770271828237
101.05114495739628
100.66387958711458
100.45863251310324
100.36009698882445
100.32917277637871
100.35354535520732
100.44460513008129
100.64063109922466
101.016317874617
101.6986368664038
102.88835847488501
104.8849298652334
108.10996824725419
113.12175071612734
120.6110289692511
131.3689557797371
146.22199326039288
165.93737066707916
191.11302680266152
222.07506881879874
222.24541050936762
191.23534453235214
166.03077467638929
146.29480536296347
131.42376416410812
120.64782086698976
113.1398157251139
108.10885940229704
104.86500779773434
102.85088858078274
101.64566082825323
100.9503307005577
100.56421663432268
100.36009711491316
100.26277656724544
100.2333333818258
100.25969585995097
100.35354525469212
100.55346663651186
100.93442161733223
101.62354637181905
102.82160308858573
104.82782730371774
108.06341467890061
113.08607210572109
120.58595432129391
131.35369001403967
146.21550068188424
165.9387711858754
191.12232750215824
222.09406693059225
222.14307079572632
191.15757874514915
165.96591270094208
146.23696971474172
131.37019581561572
120.59747578172357
113.09230482685176
108.0641519693456
104.8230771918079
102.81164808062431
101.60892315349844
100.91582271549949
100.5316368561128
100.32917259431947
100.23333338582567
100.2053480358159
100.23333343579388
100.32917266796173
100.53163712046423
100.9158230485509
101.60892277342349
102.81164932230477
104.8230759647595
108.06415443487559
113.0923080558972
120.59747293686995
131.37020496122548
146.2369618491715
165.96592971303855
191.15754671638436
222.14307230285004
222.09409726811558
191.12230814076582
165.93879422767554
146.21552037764982
131.35368745526904
120.58596386093173
113.08607245244019
108.06341800727199
104.82782730897043
102.82160458003983
101.62354743581633
100.93442161794339
100.55346728668727
100.35354531559203
100.25969591082799
100.23333347358998
100.26277664734583
100.36009689169181
100.56421674629432
100.95033018664205
101.64566002792543
102.85088860027528
104.86500566069641
108.10885902696954
113.13980886125033
120.64782223750723
131.4237487185238
146.29478623678014
166.03078578790706
191.23530901693448
222.2454039365617
222.07510130659514
191.1130055232909
165.9373803060146
146.22197994714986
131.3689591352161
120.61102369001267
113.12174667617718
108.10996998003824
104.88492776668454
102.88835907588677
101.6986362720364
101.01631740407083
100.64063095301736
100.44460502441041
100.35354544272417
100.32917279983687
100.36009701884943
100.45863265136587
100.66387975764682
101.05114471525702
101.74770340485706
102.95424531635973
104.96975203156606
108.21508233899473
113.24771050058338
120.7579245698695
131.5373292085526
146.41472597519726
166.16298880840708
191.39144709509554
222.4470657147614
222.07762402199842
191.12690067384315
165.9639663206502
146.26364086633717
131.42825141274307
120.68999782054894
113.22149427237588
108.2303645203674
105.02466115609766
103.04512818074832
101.86955522386371
101.19832961239013
100.83086797780037
100.64063114395678
100.55346688079021
100.53163680430009
100.56421665508458
100.6638798113253
100.86997641729968
101.25796912291459
101.95522603808324
103.16249517323325
105.17882739264553
108.42523472761532
113.45952742931502
120.97275059775723
131.75804861419425
146.6472853251529
166.41892958813068
191.69220076477345
222.83054429185884
222.10614334512346
191.17537267005542
166.03744310090642
146.36762888569996
131.56731276273135
120.8671807316612
113.43754033224967
108.48366396230503
105.31154051517188
103.36048386641612
102.20766766940652
101.55358610310448
101.19832968745013
101.0163178004044
100.93442199368212
100.91582346631174
100.95033045857727
101.0511450408975
101.25796958836591
101.64648819123425
102.34421144993317
103.55201210691493
105.56911986120443
108.81690932866621
113.85394077429861
121.37278863499442
132.16959837557908
147.08173815867212
166.89754381804875
192.25261606070808
223.53631375169826
222.18070897749053
191.28988854936455
166.2023091230821
146.59237860760317
131.8589431434599
121.22889755222397
113.86815730125078
108.97790275468368
105.86095169888314
103.95491070136872
102.83668590295751
102.2076669481071
101.86955603562033
101.69863691734318
101.62354626178735
101.60892298128343
101.64566092598132
101.74770347802884
101.95522618421963
102.34421099533978
103.04238209304998
104.25084214420127
106.269205617387
109.5195956093426
114.56208643599648
122.09218643190425
132.91154738165022
147.86724756142607
167.7639638770608
193.26317523405822
224.7926105596606
222.3467564357392
191.53521098427726
166.54512566230898
147.04727736979476
132.43472011897975
121.9266875636359
114.68142782357958
109.89374092469843
106.86236463988442
105.02349494090647
103.95490969396971
103.36048356288737
103.04512656021343
102.88835775627999
102.82160365141357
102.81164846138148
102.85088896731372
102.95424434548903
103.16249467985293
103.5520110456728
104.25084215514012
105.4605160997415
107.48141724180438
110.73717084707314
115.79076036629516
123.34312831977839
134.2055299739886
149.24132424487019
169.28096831043348
195.0243747030153
226.9524112375022
222.69216938864525
192.0314215894005
167.220362258047
147.9212358021938
133.51499745305472
123.20744034304747
116.1447456033819
111.5129961472416
108.60676604894618
106.86237349921302
105.86095339220847
105.31154338892705
105.02466617866375
104.88493323047086
104.82783300805382
104.82307938837835
104.86501099766159
104.96975486260206
105.17883107710958
105.56912505523525
106.2692084364781
107.48142121226624
109.50765584453468
112.77442792368763
117.85008464426008
125.44513113235374
136.38693207957024
151.56453427392034
171.846768249283
197.98678623596754
230.5332528306313
223.37311686121564
192.98416302032797
168.48412950810354
149.5175937915154
135.44353718653446
125.44637318345963
118.65541138961322
114.24688385366201
111.51299163769154
109.89374475024769
108.9779077951334
108.48367034143672
108.23037369290418
108.10997104989258
108.06342075512968
108.06415676430127
108.10886522061179
108.21508899349267
108.42523782753358
108.81691551128947
109.51959749325167
110.7371740634699
112.77442762607564
116.06321057146988
121.18135208237885
128.85533362873815
139.9380780312029
155.356831742769
176.0336305171321
202.7895761304307
236.2511612513805
224.64870195027166
194.72232539245798
170.73219692044006
152.28993578247832
138.71917329048622
129.1739747369527
122.76337100261094
118.65540565898654
116.14474425398977
114.68143670151935
113.86816723685388
113.437537602128
113.22149850794062
113.12175056051196
113.08607787201456
113.09231428934
113.13981329796462
113.24771630752868
113.45952781171735
113.85394605319215
114.56208646787218
115.79076309896057
117.8500920075742
121.18134983823316
126.37827497045687
134.1927080914803
145.5155735337089
161.32709085616662
182.61709853565452
210.28473769814758
245.03366343130176
226.9176718262587
197.7339281891399
174.5310434630857
156.86609027902983
144.01167821175363
135.08439617044453
129.1739678725371
125.44637143511547
123.20743824408345
121.92668379786647
121.2288985714403
120.86718053382252
120.69000599911904
120.61103241490409
120.58595533193542
120.59747597457351
120.64782272113746
120.75792687057324
120.97274472964696
121.37279043110064
122.0921903020544
123.34312469997762
125.44513153392153
128.85533688390703
134.19270631322726
142.24688812920778
153.96145099605693
170.38403828081866
192.58212406964594
221.5319016448599
257.9959316459768
230.749091678979
202.68862837228758
180.62842027853074
164.04486247826395
152.14627596082906
144.01168363906837
138.71917078354164
135.44351482985104
133.51497852306036
132.4347203632094
131.85894581917216
131.56731689157525
131.42824056744507
131.36895217797755
131.35368247969765
131.3701997985844
131.42374021041525
131.5373241801725
131.75804616764464
132.16959226819836
132.9115379857287
134.20552486619948
136.38693144010472
139.93807559546428
145.51556585097762
153.96144460574837
166.28624479234335
183.614496017047
207.08973935728184
237.7461248237911
276.3643145647389
236.89128220672825
210.43013782374345
189.92610715177108
174.74967032012327
164.04491673872715
156.86610219224366
152.28995703918991
149.51761129597188
147.9212595579035
147.04732937684668
146.59239815443846
146.36765353170787
146.26367973573716
146.22202015332954
146.2155231583616
146.23698841653123
146.29482676604238
146.4147503087082
146.64730428380963
147.08177244806666
147.86727541544084
149.24134672041473
151.56456690677305
155.35685514561186
161.3271090583434
170.38405409818836
183.614525465543
202.21779551852413
227.39283193937757
260.1885793087325
301.34102669268304
246.24663905909165
221.92752039517873
203.4005678839072
189.92608418946963
180.62845850982112
174.5310679638554
170.73222951490212
168.48416336337087
167.2203581158911
166.54515828809113
166.2023462625018
166.0374827546814
165.96397121910877
165.93739092044012
165.9388095333815
165.9659471827064
166.03081038940903
166.1630190632918
166.41895179011073
166.89757327343688
167.7639852759877
169.28098105290297
171.84679760425269
176.033648752265
182.61712322084108
192.58213938818966
207.08975636187313
227.39283202621914
254.69927736568826
290.00200515481356
333.91575079028814
259.8141062614278
238.19192560940022
221.92749914818904
210.43012519481496
202.68866273370224
197.7339714029054
194.72231559123958
192.98416375419657
192.03143320228708
191.53526468003716
191.2898792089294
191.17536847407948
191.12691943745455
191.1130319754512
191.12234022289311
191.15756542869445
191.23533496850575
191.39146436049205
191.69220936115974
192.25263373081262
193.26318311263316
195.02437292216405
197.98681789950237
202.78958867653364
210.28475151281384
221.53191272299836
237.74613537800138
260.18858367317574
290.00199789590704
328.0079000245168
374.63185364494586
278.84917522695366
259.8140780298005
246.2466247350608
236.89128389201105
230.74908522851325
226.9176745813987
224.64870763278924
223.37313373572482
222.69212242657912
222.3467572115639
222.1807128291648
222.10615079381864
222.0776569124621
222.0750699739335
222.0940753844908
222.14307036235732
222.24541158603614
222.44706463078026
222.83053396462924
223.53631204160862
224.7926132225521
226.9523970274259
230.53326644937547
236.25116076569375
245.0336569140671
257.99592587755296
276.3643160069525
301.3410162527666
333.9157266691165
374.6318358628729
422.7337381572345
