# vtk DataFile Version 2.0
Unstructured Grid Example
ASCII
DATASET UNSTRUCTURED_GRID

POINTS 961 float
0.150000006 -0.00839745998 0
0.146666661 -0.00839745998 0
0.143333331 -0.00839745998 0
0.140000001 -0.00839745998 0
0.13666667 -0.00839745998 0
0.13333334 -0.00839745998 0
0.129999995 -0.00839745998 0
0.126666665 -0.00839745998 0
0.123333335 -0.00839745998 0
0.119999997 -0.00839745998 0
0.116666667 -0.00839745998 0
0.113333337 -0.00839745998 0
0.109999999 -0.00839745998 0
0.106666669 -0.00839745998 0
0.103333332 -0.00839745998 0
0.100000001 -0.00839745998 0
0.0966666639 -0.00839745998 0
0.0933333337 -0.00839745998 0
0.0900000036 -0.00839745998 0
0.086666666 -0.00839745998 0
0.0833333358 -0.00839745998 0
0.0799999982 -0.00839745998 0
0.0766666681 -0.00839745998 0
0.0733333305 -0.00839745998 0
0.0700000003 -0.00839745998 0
0.0666666701 -0.00839745998 0
0.0633333325 -0.00839745998 0
0.0599999987 -0.00839745998 0
0.0566666685 -0.00839745998 0
0.0533333346 -0.00839745998 0
0.0500000007 -0.00839745998 0
0.148333326 -0.0112842107 0
0.144999996 -0.0112842107 0
0.141666666 -0.0112842107 0
0.138333336 -0.0112842107 0
0.135000005 -0.0112842107 0
0.13166666 -0.0112842107 0
0.12833333 -0.0112842107 0
0.125 -0.0112842107 0
0.12166667 -0.0112842107 0
0.118333332 -0.0112842107 0
0.115000002 -0.0112842107 0
0.111666664 -0.0112842107 0
0.108333334 -0.0112842107 0
0.104999997 -0.0112842107 0
0.101666667 -0.0112842107 0
0.0983333364 -0.0112842107 0
0.0949999988 -0.0112842107 0
0.0916666687 -0.0112842107 0
0.088333331 -0.0112842107 0
0.0850000009 -0.0112842107 0
0.0816666633 -0.0112842107 0
0.0783333331 -0.0112842107 0
0.075000003 -0.0112842107 0
0.0716666654 -0.0112842107 0
0.0683333352 -0.0112842107 0
0.0649999976 -0.0112842107 0
0.0616666675 -0.0112842107 0
0.0583333336 -0.0112842107 0
0.0549999997 -0.0112842107 0
0.0516666658 -0.0112842107 0
0.0483333319 -0.0112842107 0
0.146666661 -0.0141709624 0
0.143333331 -0.0141709624 0
0.140000001 -0.0141709624 0
0.13666667 -0.0141709624 0
0.13333334 -0.0141709624 0
0.129999995 -0.0141709624 0
0.126666665 -0.0141709624 0
0.123333335 -0.0141709624 0
0.119999997 -0.0141709624 0
0.116666667 -0.0141709624 0
0.113333337 -0.0141709624 0
0.109999999 -0.0141709624 0
0.106666669 -0.0141709624 0
0.103333332 -0.0141709624 0
0.100000001 -0.0141709624 0
0.0966666639 -0.0141709624 0
0.0933333337 -0.0141709624 0
0.0900000036 -0.0141709624 0
0.086666666 -0.0141709624 0
0.0833333358 -0.0141709624 0
0.0799999982 -0.0141709624 0
0.0766666681 -0.0141709624 0
0.0733333305 -0.0141709624 0
0.0700000003 -0.0141709624 0
0.0666666701 -0.0141709624 0
0.0633333325 -0.0141709624 0
0.0599999987 -0.0141709624 0
0.0566666685 -0.0141709624 0
0.0533333346 -0.0141709624 0
0.0500000007 -0.0141709624 0
0.0466666669 -0.0141709624 0
0.144999996 -0.0170577131 0
0.141666666 -0.0170577131 0
0.138333336 -0.0170577131 0
0.135000005 -0.0170577131 0
0.13166666 -0.0170577131 0
0.12833333 -0.0170577131 0
0.125 -0.0170577131 0
0.12166667 -0.0170577131 0
0.118333332 -0.0170577131 0
0.115000002 -0.0170577131 0
0.111666664 -0.0170577131 0
0.108333334 -0.0170577131 0
0.104999997 -0.0170577131 0
0.101666667 -0.0170577131 0
0.0983333364 -0.0170577131 0
0.0949999988 -0.0170577131 0
0.0916666687 -0.0170577131 0
0.088333331 -0.0170577131 0
0.0850000009 -0.0170577131 0
0.0816666633 -0.0170577131 0
0.0783333331 -0.0170577131 0
0.075000003 -0.0170577131 0
0.0716666654 -0.0170577131 0
0.0683333352 -0.0170577131 0
0.0649999976 -0.0170577131 0
0.0616666675 -0.0170577131 0
0.0583333336 -0.0170577131 0
0.0549999997 -0.0170577131 0
0.0516666658 -0.0170577131 0
0.0483333319 -0.0170577131 0
0.0450000018 -0.0170577131 0
0.143333331 -0.0199444648 0
0.140000001 -0.0199444648 0
0.13666667 -0.0199444648 0
0.13333334 -0.0199444648 0
0.129999995 -0.0199444648 0
0.126666665 -0.0199444648 0
0.123333335 -0.0199444648 0
0.119999997 -0.0199444648 0
0.116666667 -0.0199444648 0
0.113333337 -0.0199444648 0
0.109999999 -0.0199444648 0
0.106666669 -0.0199444648 0
0.103333332 -0.0199444648 0
0.100000001 -0.0199444648 0
0.0966666639 -0.0199444648 0
0.0933333337 -0.0199444648 0
0.0900000036 -0.0199444648 0
0.086666666 -0.0199444648 0
0.0833333358 -0.0199444648 0
0.0799999982 -0.0199444648 0
0.0766666681 -0.0199444648 0
0.0733333305 -0.0199444648 0
0.0700000003 -0.0199444648 0
0.0666666701 -0.0199444648 0
0.0633333325 -0.0199444648 0
0.0599999987 -0.0199444648 0
0.0566666685 -0.0199444648 0
0.0533333346 -0.0199444648 0
0.0500000007 -0.0199444648 0
0.0466666669 -0.0199444648 0
0.043333333 -0.0199444648 0
0.141666666 -0.0228312165 0
0.138333336 -0.0228312165 0
0.135000005 -0.0228312165 0
0.13166666 -0.0228312165 0
0.12833333 -0.0228312165 0
0.125 -0.0228312165 0
0.12166667 -0.0228312165 0
0.118333332 -0.0228312165 0
0.115000002 -0.0228312165 0
0.111666664 -0.0228312165 0
0.108333334 -0.0228312165 0
0.104999997 -0.0228312165 0
0.101666667 -0.0228312165 0
0.0983333364 -0.0228312165 0
0.0949999988 -0.0228312165 0
0.0916666687 -0.0228312165 0
0.088333331 -0.0228312165 0
0.0850000009 -0.0228312165 0
0.0816666633 -0.0228312165 0
0.0783333331 -0.0228312165 0
0.075000003 -0.0228312165 0
0.0716666654 -0.0228312165 0
0.0683333352 -0.0228312165 0
0.0649999976 -0.0228312165 0
0.0616666675 -0.0228312165 0
0.0583333336 -0.0228312165 0
0.0549999997 -0.0228312165 0
0.0516666658 -0.0228312165 0
0.0483333319 -0.0228312165 0
0.0450000018 -0.0228312165 0
0.0416666679 -0.0228312165 0
0.140000001 -0.0257179681 0
0.13666667 -0.0257179681 0
0.13333334 -0.0257179681 0
0.129999995 -0.0257179681 0
0.126666665 -0.0257179681 0
0.123333335 -0.0257179681 0
0.119999997 -0.0257179681 0
0.116666667 -0.0257179681 0
0.113333337 -0.0257179681 0
0.109999999 -0.0257179681 0
0.106666669 -0.0257179681 0
0.103333332 -0.0257179681 0
0.100000001 -0.0257179681 0
0.0966666639 -0.0257179681 0
0.0933333337 -0.0257179681 0
0.0900000036 -0.0257179681 0
0.086666666 -0.0257179681 0
0.0833333358 -0.0257179681 0
0.0799999982 -0.0257179681 0
0.0766666681 -0.0257179681 0
0.0733333305 -0.0257179681 0
0.0700000003 -0.0257179681 0
0.0666666701 -0.0257179681 0
0.0633333325 -0.0257179681 0
0.0599999987 -0.0257179681 0
0.0566666685 -0.0257179681 0
0.0533333346 -0.0257179681 0
0.0500000007 -0.0257179681 0
0.0466666669 -0.0257179681 0
0.043333333 -0.0257179681 0
0.0399999991 -0.0257179681 0
0.138333336 -0.0286047198 0
0.135000005 -0.0286047198 0
0.13166666 -0.0286047198 0
0.12833333 -0.0286047198 0
0.125 -0.0286047198 0
0.12166667 -0.0286047198 0
0.118333332 -0.0286047198 0
0.115000002 -0.0286047198 0
0.111666664 -0.0286047198 0
0.108333334 -0.0286047198 0
0.104999997 -0.0286047198 0
0.101666667 -0.0286047198 0
0.0983333364 -0.0286047198 0
0.0949999988 -0.0286047198 0
0.0916666687 -0.0286047198 0
0.088333331 -0.0286047198 0
0.0850000009 -0.0286047198 0
0.0816666633 -0.0286047198 0
0.0783333331 -0.0286047198 0
0.075000003 -0.0286047198 0
0.0716666654 -0.0286047198 0
0.0683333352 -0.0286047198 0
0.0649999976 -0.0286047198 0
0.0616666675 -0.0286047198 0
0.0583333336 -0.0286047198 0
0.0549999997 -0.0286047198 0
0.0516666658 -0.0286047198 0
0.0483333319 -0.0286047198 0
0.0450000018 -0.0286047198 0
0.0416666679 -0.0286047198 0
0.038333334 -0.0286047198 0
0.13666667 -0.0314914696 0
0.13333334 -0.0314914696 0
0.129999995 -0.0314914696 0
0.126666665 -0.0314914696 0
0.123333335 -0.0314914696 0
0.119999997 -0.0314914696 0
0.116666667 -0.0314914696 0
0.113333337 -0.0314914696 0
0.109999999 -0.0314914696 0
0.106666669 -0.0314914696 0
0.103333332 -0.0314914696 0
0.100000001 -0.0314914696 0
0.0966666639 -0.0314914696 0
0.0933333337 -0.0314914696 0
0.0900000036 -0.0314914696 0
0.086666666 -0.0314914696 0
0.0833333358 -0.0314914696 0
0.0799999982 -0.0314914696 0
0.0766666681 -0.0314914696 0
0.0733333305 -0.0314914696 0
0.0700000003 -0.0314914696 0
0.0666666701 -0.0314914696 0
0.0633333325 -0.0314914696 0
0.0599999987 -0.0314914696 0
0.0566666685 -0.0314914696 0
0.0533333346 -0.0314914696 0
0.0500000007 -0.0314914696 0
0.0466666669 -0.0314914696 0
0.043333333 -0.0314914696 0
0.0399999991 -0.0314914696 0
0.0366666652 -0.0314914696 0
0.135000005 -0.0343782231 0
0.13166666 -0.0343782231 0
0.12833333 -0.0343782231 0
0.125 -0.0343782231 0
0.12166667 -0.0343782231 0
0.118333332 -0.0343782231 0
0.115000002 -0.0343782231 0
0.111666664 -0.0343782231 0
0.108333334 -0.0343782231 0
0.104999997 -0.0343782231 0
0.101666667 -0.0343782231 0
0.0983333364 -0.0343782231 0
0.0949999988 -0.0343782231 0
0.0916666687 -0.0343782231 0
0.088333331 -0.0343782231 0
0.0850000009 -0.0343782231 0
0.0816666633 -0.0343782231 0
0.0783333331 -0.0343782231 0
0.075000003 -0.0343782231 0
0.0716666654 -0.0343782231 0
0.0683333352 -0.0343782231 0
0.0649999976 -0.0343782231 0
0.0616666675 -0.0343782231 0
0.0583333336 -0.0343782231 0
0.0549999997 -0.0343782231 0
0.0516666658 -0.0343782231 0
0.0483333319 -0.0343782231 0
0.0450000018 -0.0343782231 0
0.0416666679 -0.0343782231 0
0.038333334 -0.0343782231 0
0.0350000001 -0.0343782231 0
0.13333334 -0.0372649729 0
0.129999995 -0.0372649729 0
0.126666665 -0.0372649729 0
0.123333335 -0.0372649729 0
0.119999997 -0.0372649729 0
0.116666667 -0.0372649729 0
0.113333337 -0.0372649729 0
0.109999999 -0.0372649729 0
0.106666669 -0.0372649729 0
0.103333332 -0.0372649729 0
0.100000001 -0.0372649729 0
0.0966666639 -0.0372649729 0
0.0933333337 -0.0372649729 0
0.0900000036 -0.0372649729 0
0.086666666 -0.0372649729 0
0.0833333358 -0.0372649729 0
0.0799999982 -0.0372649729 0
0.0766666681 -0.0372649729 0
0.0733333305 -0.0372649729 0
0.0700000003 -0.0372649729 0
0.0666666701 -0.0372649729 0
0.0633333325 -0.0372649729 0
0.0599999987 -0.0372649729 0
0.0566666685 -0.0372649729 0
0.0533333346 -0.0372649729 0
0.0500000007 -0.0372649729 0
0.0466666669 -0.0372649729 0
0.043333333 -0.0372649729 0
0.0399999991 -0.0372649729 0
0.0366666652 -0.0372649729 0
0.0333333351 -0.0372649729 0
0.13166666 -0.0401517227 0
0.12833333 -0.0401517227 0
0.125 -0.0401517227 0
0.12166667 -0.0401517227 0
0.118333332 -0.0401517227 0
0.115000002 -0.0401517227 0
0.111666664 -0.0401517227 0
[...]
POINT_DATA 961
SCALARS Temp float 1
LOOKUP_TABLE default
259.46529441613757
211.91449894595115
182.94311786550915
168.50252047066638
162.21840242849498
159.75632988019905
158.865097303227
158.56121878283642
158.46228974378263
158.43124256779086
158.42178349045574
158.41897507236175
158.41815740023992
158.4179233991821
158.41785897800852
158.41783850976896
158.41783370059161
158.41783102668148
158.41783298007672
158.41783541833564
158.4178490195495
158.4179234742089
158.41830570238295
158.42026587337614
158.42986377030547
158.4745079180861
158.66826485900646
159.43288459289278
162.07501394330825
169.71871740679418
188.04682442930257
211.91451685155081
169.98713220465953
147.29436526563399
136.59954062209562
132.13500296886863
130.4370739251956
129.83529208497913
129.6332334352422
129.56821019815328
129.5479885653921
129.54187440946097
129.54006794099453
129.53954495249192
129.53939625522125
129.53935281337635
129.53934271735218
129.5393399954313
129.53933976312945
129.5393401437989
129.5393463003555
129.53938016572212
129.5395568313139
129.54047445891618
129.54500527075407
129.56636177219767
129.66094914171418
130.0462593360538
131.44674890705392
135.81838825583696
147.10675983191913
169.7187326691633
182.9430938619971
147.29436096299202
128.1381396501016
119.17706363516656
115.4373886007796
114.01018645355099
113.50183215173092
113.33026003623655
113.27478252761472
113.25745658107442
113.25220030717435
113.25064280265056
113.25019061365045
113.25006179725425
113.25002580457587
113.25001520932892
113.25001178142121
113.25001256637468
113.25001503169169
113.25002933329314
113.25010534054285
113.25049602766188
113.25242953376336
113.26158650734482
113.30251917198606
113.4721865010207
114.10899505724636
116.2103406981895
122.11938303155242
135.818378765018
162.0750166470489
168.50250128844553
136.59953962085277
119.1770708386706
110.91783064509303
107.43456810335549
106.09393739767148
105.61320274605889
105.45009398028058
105.39713503496507
105.38054259544025
105.37549394879679
105.3739951255937
105.37355932482237
105.37343439232333
105.37339990519177
105.37339023871766
105.37338805681836
105.37338815261093
105.37339365855621
105.3734237381937
105.37357766961809
105.37434108655262
105.37794998934085
105.3941193394896
105.46173674295892
105.72075241166608
106.60992488786867
109.28620485678039
116.21034736672121
131.44675872840054
159.4328781221079
162.21839614461229
132.1350059859468
115.4373936515501
107.43458221295654
104.03497894992225
102.72020146885889
102.2471585482527
102.08627794280468
102.03395240436103
102.01753724681868
102.0125378875917
102.01105253812682
102.01062040983338
102.01049704333558
102.01046214427151
102.01045240981774
102.01045041251844
102.01045184225964
102.01046293035063
102.01052035740678
102.01080291559093
102.01213296563131
102.01808334536705
102.04306196462292
102.14000769457608
102.4823805259504
103.56661834520605
106.60992242704913
114.10899352259536
130.0462565730397
158.66827146250358
159.75632339751357
130.4370861687153
114.01019892631848
106.09392670556632
102.72019817353126
101.41282297148376
100.94184632148404
100.7815335554364
100.72936277458584
100.71298895957545
100.70800080819588
100.70651847756301
100.70608705628443
100.7059638662769
100.70592919420551
100.70591977869597
100.7059178602744
100.7059211681581
100.70594132073552
100.70604043804491
100.7065050150633
100.70857505493973
100.71727106494382
100.75131170804934
100.87405410416396
101.27788011907236
102.48238026375179
105.72075302586012
113.47219106149318
129.66093454530034
158.47449924378702
158.8650940514386
129.83530025491268
113.50185103633571
105.6131884281727
102.2471550690123
100.94184588989307
100.4714128819816
100.31124289195925
100.25910906142158
100.24274490598961
100.23775927865903
100.23627760219296
100.23584644689028
100.23572318726971
100.23568853543608
100.23567921052296
100.23567794738024
100.23568413391818
100.23571733132907
100.23587246048542
100.23656038722767
100.23944754012803
100.25081381041262
100.2924445832345
100.43347687165195
100.87405378576959
102.14000649385822
105.46173415927404
113.3025162077647
129.5663590396647
158.42987320452332
158.56122432490457
129.63324360346434
113.33022920801025
105.45008223157349
102.08627621465348
100.781534350676
100.31124278749724
100.15110819126501
100.09898301454588
100.08262112708626
100.07763605204205
100.07615451164713
100.0757233803977
100.07560016348229
100.0755655836127
100.07555640467203
100.07555602320677
100.0755661375319
100.07561587388233
100.07583601261372
100.07675822149524
100.08040273047925
100.0939142493674
100.14075140101473
100.29244449350603
100.7513116293028
102.0430620022077
105.39411942802842
113.26157943521989
129.54498961083328
158.42025611328071
158.46228352517105
129.56822759576022
113.27474999483275
105.39712663289295
102.03395235137292
100.72936213297454
100.25910909860491
100.09898319795924
100.0468600572847
100.03049869099914
100.02551373414666
100.024032236474
100.02360110042437
100.02347789657891
100.02344336760272
100.02343445693332
100.02343522130359
100.0234500808057
100.02351816939314
100.02380339677609
100.02493375151381
100.02916512804235
100.04410700837452
100.09391430800962
100.2508137558084
100.71727083949456
102.0180831351885
105.3779481015508
113.2524312490991
129.54047852942875
158.41832198543494
158.43125530936337
129.54793032290138
113.25744266490254
105.38054167442581
102.0175405647751
100.7129890591032
100.24274527227712
100.08262115218062
100.03049868515515
100.01413740128771
100.00915248638013
100.00767099275495
100.00723986418429
100.00711668069424
100.0070822224649
100.00707363726086
100.00707572644627
100.00709562293723
100.00718133297275
100.00752229268525
100.00880893332508
100.01342207829077
100.0291651079767
100.08040270159127
100.23944754951823
100.70857504848891
102.01213307580579
105.37433555215284
113.25048758516583
129.53954381474273
158.41791344463851
158.42183279007318
129.54183420836532
113.25219693662906
105.37549725279742
102.01253735802361
100.7080012565352
100.23775978978676
100.07763605021682
100.02551375610219
100.00915248507033
100.00416758059514
100.00268608713691
100.00225496563593
100.00213180307605
100.00209743616018
100.00208921265946
100.00209265464252
100.00211721802533
100.00221752144554
100.00259916956604
100.00398528806575
100.00880893974899
100.02493375871316
100.07675819288356
100.23656030558278
100.70650484168273
102.01080198549079
105.37357723463447
113.25010787680826
129.53938783825777
158.41783782740129
158.41893220341225
129.54005168837477
113.25064700255149
105.37400214026421
102.011051754463
100.70651897691567
100.23627745987528
100.07615452613844
100.02403219539218
100.00767099303233
100.00268608999247
100.00120459789458
100.00077348448919
100.00065034747756
100.00061607891513
100.00060821284688
100.00061286744342
100.00064118137895
100.0007518777263
100.00115893155481
100.00259917330864
100.00752229763256
100.0238033866537
100.07583605927766
100.23587259562703
100.70604106727048
102.010519542177
105.3734219236159
113.25002999827035
129.53934657719628
158.41784819910936
158.41814703272323
129.53955195741614
113.25020418505034
105.3735575013117
102.01062102343998
100.70608834864328
100.2358463352212
100.0757234814096
100.02360107357954
100.0072398699163
100.00225496383167
100.0007734837076
100.00034238283853
100.00021927752977
100.00018510695055
100.00017755496901
100.00018316092557
100.00021408790738
100.00033116316814
100.00075187635484
100.00221752067486
100.00718133975998
100.02351813812638
100.07561585681309
100.23571727737891
100.70594105084928
102.01046261941009
105.37339309568257
113.25001830316569
129.5393208787882
158.4178339465103
158.41791365852592
129.53940113462934
113.25007682436178
105.3734308039463
102.01049732533254
100.70596320277336
100.23572315482294
100.07560009182514
100.02347788241086
100.00711669087845
100.00213180003142
100.00065034711021
100.00021927743059
100.00009621953497
100.00006214607959
100.00005484444591
100.0000611061895
100.00009361617074
100.00021408775278
100.0006411817288
100.00211721728459
100.00709562655408
100.02345007779007
100.07556619270886
100.23568432625576
100.70592087624294
102.0104510823978
105.37338647586517
113.25001178320359
129.539342550542
158.4178313777906
158.4178608099646
129.5393683317962
113.2500183859196
105.37339898087319
102.0104647058741
100.70592884660053
100.2356888488594
100.07556554331325
100.02344336402615
100.00708222068162
100.00209743555259
100.00061607940171
100.00018510684002
100.00006214612725
100.0000281888167
100.00002108361161
100.00002775294617
100.00006110613326
100.0001831607049
100.0006128668545
100.00209265494517
100.00707572381675
100.02343519507119
100.07555600720409
100.23567784477947
100.70591774941278
102.01045018753986
105.37338773171973
113.25000426334375
129.53933728277315
158.41782832054818
158.41783514697934
129.53935711935802
113.25000531625942
105.37338999359018
102.010450624777
100.70591961811114
100.23567897754948
100.07555640262049
100.02343447098535
100.00707363292251
100.00208921271694
100.00060821171172
100.00017755495699
100.00005484436166
100.00002108360987
100.00001416451421
100.0000210836247
100.00005484438026
100.00017755523396
100.00060821221885
100.00208921166643
100.00707364218418
100.02343445572528
100.07555646876706
100.23567910084535
100.70591946813455
102.01045211070273
105.37338859422096
113.2500188375329
129.5393362667909
158.41784279996466
158.4178445412388
129.53931730809904
113.2500137795719
105.37339399971538
102.01044956089824
100.70591866731121
100.23567783305475
100.07555606296357
100.02343519411582
100.00707573024344
100.00209265800962
100.00061286667751
100.00018316119335
100.00006110614187
100.00002775295945
100.00002108363762
100.00002818884361
100.00006214601994
100.00018510692672
100.00061607851433
100.00209743352576
100.00708222014755
100.02344334348656
100.07556554229723
100.23568853093282
100.7059291828685
102.0104623866058
105.3733947064584
113.25002430634277
129.53934196580775
158.41785127724657
158.4178584702209
129.5393240642995
113.2500179181101
105.3733834960595
102.01045151804803
100.7059204407666
100.2356840961747
100.07556623164444
100.02345004705528
100.00709563008644
100.00211721565171
100.00064118081553
100.00021408769473
100.0000936161223
100.00006110621713
100.00005484446531
100.00006214608793
100.00009621961453
100.00021927757037
100.00065034673281
100.00213180255228
100.00711668517282
100.02347790191885
100.07560013189857
100.23572311345887
100.70596372591608
102.01049630038732
105.37343467065872
113.2500572429601
129.53938937751602
158.41792350702858
158.4178072188491
129.5393345644783
113.25002615774272
105.37338815644938
102.01046344969359
100.70594043988444
100.23571726164589
100.07561579823697
100.02351814291885
100.00718134502999
100.00221751860376
100.00075187755354
100.00033116304866
100.0002140878506
100.00018316090971
100.00017755495841
100.00018510693111
100.00021927761594
100.00034238268248
100.00077348352258
100.00225496505612
100.0072398685654
100.02360109053163
100.07572342752326
100.23584659164021
100.70608771927456
102.01061955795512
105.37355990050976
113.25019011709234
129.53954361238294
158.41816431162854
158.41783270721217
129.53935735145066
113.25002107069798
105.37342197783438
102.01051804981081
100.70604038345598
100.23587272030048
100.07583597106425
100.02380340034692
100.00752229299246
100.00259917048629
100.00115893136805
100.00075187753104
100.00064118147122
100.00061286762741
100.00060821286687
100.00061607892333
100.00065034753128
100.00077348431152
100.0012045985939
100.002686088162
100.00767099888232
100.0240322058081
100.07615449666163
100.23627754787663
100.70651821322495
102.01105230541128
105.37399075605268
113.2506376420555
129.5400583583158
158.41897333069832
158.41784472794146
129.53939420769262
113.25009389909198
105.37357840167239
102.01080032870743
100.70650484905354
100.2365601495106
100.07675821509567
100.02493377722149
100.00880893346115
100.00398529219197
100.00259916966692
100.00221752129981
100.00211721783911
100.00209265447799
100.00208921271008
100.00209743654031
100.00213180287453
100.00225496569028
100.00268608752941
100.00416757995943
100.00915248949833
100.02551373234223
100.07763610642344
100.23775945611779
100.70800043796031
102.0125378844601
105.37549151691572
113.25219925601787
129.54187312240123
158.4217802270797
158.4179128258716
129.53951885800697
113.25048682670857
105.37433205393155
102.01213147608792
100.70857546964912
100.23944730788483
100.08040274810391
100.02916509531192
100.01342206995884
100.00880893244452
100.00752229161496
100.00718133325269
100.00709562503634
100.00707572669586
100.00707363712868
100.00708222262301
100.00711668009532
100.00723986441909
100.00767099229712
100.00915248857146
100.01413740237425
100.0304986680967
100.08262115519463
100.2427449531555
100.7129893333199
102.01753671048075
105.38054171575173
113.25746118672573
129.54799632437613
158.43125880591006
158.41834413733298
129.54046754719045
113.25244248792022
105.37794802761434
102.01808468495307
100.71727092883181
100.2508140259226
100.0939144542835
100.04410704225069
100.02916518372773
100.02493379608181
100.02380343556861
100.02351820640195
100.02345011774798
100.02343526054732
100.02343449930329
100.02344340456611
100.02347793660547
100.02360113993763
100.02403227372156
100.02551377394052
100.03049871555487
100.04686009223607
100.09898306568189
100.25910875370357
100.72936230177457
102.03395059106245
105.3971302485948
113.27477669009664
129.56818858518434
158.46227477810174
158.4202506915387
129.54500879910836
113.26158058957672
105.39411919398181
102.04306449648274
100.75131152586903
100.29244489408005
100.14075153780632
100.09391436228323
100.08040285116226
100.07675833793499
100.07583613780395
100.07561601869341
100.07556626429813
100.07555614598921
100.07555652944116
100.07556570281845
100.07560028838795
100.07572350577824
100.07615464321273
100.07763617222105
100.08262124268256
100.09898312913599
100.15110817636074
100.31124300859194
100.78153315999616
102.08627687383488
105.45009127395359
113.33025829413074
129.63322970394375
158.56121626678024
158.4298583717447
129.56637554825332
113.3025129520984
105.46173647219557
102.14000614358109
100.87405439403985
100.43347729643183
100.29244473005252
100.25081403872984
100.23944777990205
100.2365605774848
100.23587263519369
100.23571750131376
100.23568432538471
100.2356781655741
100.23567938232159
100.23568873706903
100.23572338326635
100.23584662871794
100.23627780505663
100.23775946850515
100.24274510177021
100.25910919924134
100.31124306340634
100.4714133917415
100.94184612137374
102.2471582645661
105.6132027773278
113.50183008704414
129.8352885235234
158.86509608425865
158.47450493776677
129.6609218718784
113.47218349344317
105.72075587978091
102.48237876876436
101.27788053799448
100.87405411497527
100.75131168080367
100.7172710408465
100.70857500543943
100.70650504162039
100.70604062092687
100.70594136013136
100.70592117457787
100.70591787500258
100.7059197663368
100.70592922163138
100.70596389812458
100.70608713551982
100.70651847533503
100.70800084943838
100.71298902223738
100.72936274117285
100.78153370484729
100.94184615369781
101.4128238591721
102.72020306071373
106.09394043319969
114.01019060319456
130.4370742090532
159.75632460864676
158.66827159269093
130.04623620013695
114.1089914220405
106.60991772420732
103.56661731219498
102.48237956758756
102.14000610081402
102.04306065434325
102.01808231353536
102.01213161805352
102.01080146813986
102.01051882235843
102.01046156074389
102.01045064874079
102.01044892267699
102.01045113962023
102.01046081803602
102.01049562418713
102.01061910775542
102.01105119390489
102.01253653552072
102.01753575517668
102.03395125545651
102.08627679884654
102.24715718821018
102.72020168032684
104.0349836299664
107.43456999316015
115.4373826748607
132.13499907786823
162.2184070505959
159.43288415367368
131.4467636797214
116.21036566108639
109.28621063559041
106.60993305110058
105.72075942728638
105.4617433411417
105.39412575062377
105.37795617785235
105.37434780869154
105.37358519946144
105.37343047574096
105.37340019778567
105.3733946896454
105.37339458808867
105.37339691561077
105.3734065992878
105.37344134718408
105.37356580603696
105.37400187448466
105.37550076851043
105.38054904219416
105.39714160106506
105.4501004555836
105.61320976485756
106.0939459513641
107.43457737492766
110.91782466151275
119.17705375311537
136.59951585824734
168.50250271034096
162.07502273553965
135.81840310626208
122.11939342596185
116.21035433112708
114.1090078882892
113.47219726007769
113.30253065493618
113.26159934103248
113.25244129246393
113.25050734133895
113.2501158619777
113.250040706219
113.25002715363601
113.25002361573173
113.25002377837653
113.25002685722703
113.25003709415687
113.25007340046153
113.25020221941888
113.25065429925075
113.25221125560135
113.25746894889451
113.27479425569582
113.33027088877832
113.50184437061421
114.01019837767805
115.4373909691567
119.17706212357798
128.13812970073326
147.29434863691733
182.94310763043114
169.71873258119166
147.10678078257922
135.81839226116495
131.4467581182266
130.0462673869268
129.6609563343249
129.56636841387825
129.54501105026603
129.54048259602314
129.53956672320925
129.53938771122873
129.53935329648615
129.5393469609043
129.53934725366742
129.5393474244331
129.53935027328208
129.53936106989153
129.53940302773321
129.53955270615054
129.54007570678752
129.54188148354388
129.5479954687832
129.56821773402686
129.63324234707267
129.8353016508942
130.43708144304313
132.1350015153698
136.5995338642286
147.29434981587423
169.98711952468835
211.91447129701658
188.0468388319231
169.7187131934666
162.07501629452793
159.43288722303433
158.66826331419048
158.47450816839057
158.42986546393126
158.42026845604525
158.41830716402825
158.4179206572384
158.41784903613768
158.4178364027573
158.41783349575763
158.41783250002848
158.4178344566547
158.41783923307176
158.41785846991112
158.4179247347569
158.41815774203351
158.41897456244857
158.421785231039
158.43124372170473
158.4622909453712
158.5612199217421
158.8650937003396
159.75632331261136
162.2183980363387
168.50250580340972
182.94309442032753
211.91445585142236
259.46496055523534
