# vtk DataFile Version 2.0
Unstructured Grid Example
ASCII
DATASET UNSTRUCTURED_GRID

POINTS 961 float
0.150000006 -0.00839745998 0
0.146666661 -0.00839745998 0
0.143333331 -0.00839745998 0
0.140000001 -0.00839745998 0
0.13666667 -0.00839745998 0
0.13333334 -0.00839745998 0
0.129999995 -0.00839745998 0
0.126666665 -0.00839745998 0
0.123333335 -0.00839745998 0
0.119999997 -0.00839745998 0
0.116666667 -0.00839745998 0
0.113333337 -0.00839745998 0
0.109999999 -0.00839745998 0
0.106666669 -0.00839745998 0
0.103333332 -0.00839745998 0
0.100000001 -0.00839745998 0
0.0966666639 -0.00839745998 0
0.0933333337 -0.00839745998 0
0.0900000036 -0.00839745998 0
0.086666666 -0.00839745998 0
0.0833333358 -0.00839745998 0
0.0799999982 -0.00839745998 0
0.0766666681 -0.00839745998 0
0.0733333305 -0.00839745998 0
0.0700000003 -0.00839745998 0
0.0666666701 -0.00839745998 0
0.0633333325 -0.00839745998 0
0.0599999987 -0.00839745998 0
0.0566666685 -0.00839745998 0
0.0533333346 -0.00839745998 0
0.0500000007 -0.00839745998 0
0.148333326 -0.0112842107 0
0.144999996 -0.0112842107 0
0.141666666 -0.0112842107 0
0.138333336 -0.0112842107 0
0.135000005 -0.0112842107 0
0.13166666 -0.0112842107 0
0.12833333 -0.0112842107 0
0.125 -0.0112842107 0
0.12166667 -0.0112842107 0
0.118333332 -0.0112842107 0
0.115000002 -0.0112842107 0
0.111666664 -0.0112842107 0
0.108333334 -0.0112842107 0
0.104999997 -0.0112842107 0
0.101666667 -0.0112842107 0
0.0983333364 -0.0112842107 0
0.0949999988 -0.0112842107 0
0.0916666687 -0.0112842107 0
0.088333331 -0.0112842107 0
0.0850000009 -0.0112842107 0
0.0816666633 -0.0112842107 0
0.0783333331 -0.0112842107 0
0.075000003 -0.0112842107 0
0.0716666654 -0.0112842107 0
0.0683333352 -0.0112842107 0
0.0649999976 -0.0112842107 0
0.0616666675 -0.0112842107 0
0.0583333336 -0.0112842107 0
0.0549999997 -0.0112842107 0
0.0516666658 -0.0112842107 0
0.0483333319 -0.0112842107 0
0.146666661 -0.0141709624 0
0.143333331 -0.0141709624 0
0.140000001 -0.0141709624 0
0.13666667 -0.0141709624 0
0.13333334 -0.0141709624 0
0.129999995 -0.0141709624 0
0.126666665 -0.0141709624 0
0.123333335 -0.0141709624 0
0.119999997 -0.0141709624 0
0.116666667 -0.0141709624 0
0.113333337 -0.0141709624 0
0.109999999 -0.0141709624 0
0.106666669 -0.0141709624 0
0.103333332 -0.0141709624 0
0.100000001 -0.0141709624 0
0.0966666639 -0.0141709624 0
0.0933333337 -0.0141709624 0
0.0900000036 -0.0141709624 0
0.086666666 -0.0141709624 0
0.0833333358 -0.0141709624 0
0.0799999982 -0.0141709624 0
0.0766666681 -0.0141709624 0
0.0733333305 -0.0141709624 0
0.0700000003 -0.0141709624 0
0.0666666701 -0.0141709624 0
0.0633333325 -0.0141709624 0
0.0599999987 -0.0141709624 0
0.0566666685 -0.0141709624 0
0.0533333346 -0.0141709624 0
0.0500000007 -0.0141709624 0
0.0466666669 -0.0141709624 0
0.144999996 -0.0170577131 0
0.141666666 -0.0170577131 0
0.138333336 -0.0170577131 0
0.135000005 -0.0170577131 0
0.13166666 -0.0170577131 0
0.12833333 -0.0170577131 0
0.125 -0.0170577131 0
0.12166667 -0.0170577131 0
0.118333332 -0.0170577131 0
0.115000002 -0.0170577131 0
0.111666664 -0.0170577131 0
0.108333334 -0.0170577131 0
0.104999997 -0.0170577131 0
0.101666667 -0.0170577131 0
0.0983333364 -0.0170577131 0
0.0949999988 -0.0170577131 0
0.0916666687 -0.0170577131 0
0.088333331 -0.0170577131 0
0.0850000009 -0.0170577131 0
0.0816666633 -0.0170577131 0
0.0783333331 -0.0170577131 0
0.075000003 -0.0170577131 0
0.0716666654 -0.0170577131 0
0.0683333352 -0.0170577131 0
0.0649999976 -0.0170577131 0
0.0616666675 -0.0170577131 0
0.0583333336 -0.0170577131 0
0.0549999997 -0.0170577131 0
0.0516666658 -0.0170577131 0
0.0483333319 -0.0170577131 0
0.0450000018 -0.0170577131 0
0.143333331 -0.0199444648 0
0.140000001 -0.0199444648 0
0.13666667 -0.0199444648 0
0.13333334 -0.0199444648 0
0.129999995 -0.0199444648 0
0.126666665 -0.0199444648 0
0.123333335 -0.0199444648 0
0.119999997 -0.0199444648 0
0.116666667 -0.0199444648 0
0.113333337 -0.0199444648 0
0.109999999 -0.0199444648 0
0.106666669 -0.0199444648 0
0.103333332 -0.0199444648 0
0.100000001 -0.0199444648 0
0.0966666639 -0.0199444648 0
0.0933333337 -0.0199444648 0
0.0900000036 -0.0199444648 0
0.086666666 -0.0199444648 0
0.0833333358 -0.0199444648 0
0.0799999982 -0.0199444648 0
0.0766666681 -0.0199444648 0
0.0733333305 -0.0199444648 0
0.0700000003 -0.0199444648 0
0.0666666701 -0.0199444648 0
0.0633333325 -0.0199444648 0
0.0599999987 -0.0199444648 0
0.0566666685 -0.0199444648 0
0.0533333346 -0.0199444648 0
0.0500000007 -0.0199444648 0
0.0466666669 -0.0199444648 0
0.043333333 -0.0199444648 0
0.141666666 -0.0228312165 0
0.138333336 -0.0228312165 0
0.135000005 -0.0228312165 0
0.13166666 -0.0228312165 0
0.12833333 -0.0228312165 0
0.125 -0.0228312165 0
0.12166667 -0.0228312165 0
0.118333332 -0.0228312165 0
0.115000002 -0.0228312165 0
0.111666664 -0.0228312165 0
0.108333334 -0.0228312165 0
0.104999997 -0.0228312165 0
0.101666667 -0.0228312165 0
0.0983333364 -0.0228312165 0
0.0949999988 -0.0228312165 0
0.0916666687 -0.0228312165 0
0.088333331 -0.0228312165 0
0.0850000009 -0.0228312165 0
0.0816666633 -0.0228312165 0
0.0783333331 -0.0228312165 0
0.075000003 -0.0228312165 0
0.0716666654 -0.0228312165 0
0.0683333352 -0.0228312165 0
0.0649999976 -0.0228312165 0
0.0616666675 -0.0228312165 0
0.0583333336 -0.0228312165 0
0.0549999997 -0.0228312165 0
0.0516666658 -0.0228312165 0
0.0483333319 -0.0228312165 0
0.0450000018 -0.0228312165 0
0.0416666679 -0.0228312165 0
0.140000001 -0.0257179681 0
0.13666667 -0.0257179681 0
0.13333334 -0.0257179681 0
0.129999995 -0.0257179681 0
0.126666665 -0.0257179681 0
0.123333335 -0.0257179681 0
0.119999997 -0.0257179681 0
0.116666667 -0.0257179681 0
0.113333337 -0.0257179681 0
0.109999999 -0.0257179681 0
0.106666669 -0.0257179681 0
0.103333332 -0.0257179681 0
0.100000001 -0.0257179681 0
0.0966666639 -0.0257179681 0
0.0933333337 -0.0257179681 0
0.0900000036 -0.0257179681 0
0.086666666 -0.0257179681 0
0.0833333358 -0.0257179681 0
0.0799999982 -0.0257179681 0
0.0766666681 -0.0257179681 0
0.0733333305 -0.0257179681 0
0.0700000003 -0.0257179681 0
0.0666666701 -0.0257179681 0
0.0633333325 -0.0257179681 0
0.0599999987 -0.0257179681 0
0.0566666685 -0.0257179681 0
0.0533333346 -0.0257179681 0
0.0500000007 -0.0257179681 0
0.0466666669 -0.0257179681 0
0.043333333 -0.0257179681 0
0.0399999991 -0.0257179681 0
0.138333336 -0.0286047198 0
0.135000005 -0.0286047198 0
0.13166666 -0.0286047198 0
0.12833333 -0.0286047198 0
0.125 -0.0286047198 0
0.12166667 -0.0286047198 0
0.118333332 -0.0286047198 0
0.115000002 -0.0286047198 0
0.111666664 -0.0286047198 0
0.108333334 -0.0286047198 0
0.104999997 -0.0286047198 0
0.101666667 -0.0286047198 0
0.0983333364 -0.0286047198 0
0.0949999988 -0.0286047198 0
0.0916666687 -0.0286047198 0
0.088333331 -0.0286047198 0
0.0850000009 -0.0286047198 0
0.0816666633 -0.0286047198 0
0.0783333331 -0.0286047198 0
0.075000003 -0.0286047198 0
0.0716666654 -0.0286047198 0
0.0683333352 -0.0286047198 0
0.0649999976 -0.0286047198 0
0.0616666675 -0.0286047198 0
0.0583333336 -0.0286047198 0
0.0549999997 -0.0286047198 0
0.0516666658 -0.0286047198 0
0.0483333319 -0.0286047198 0
0.0450000018 -0.0286047198 0
0.0416666679 -0.0286047198 0
0.038333334 -0.0286047198 0
0.13666667 -0.0314914696 0
0.13333334 -0.0314914696 0
0.129999995 -0.0314914696 0
0.126666665 -0.0314914696 0
0.123333335 -0.0314914696 0
0.119999997 -0.0314914696 0
0.116666667 -0.0314914696 0
0.113333337 -0.0314914696 0
0.109999999 -0.0314914696 0
0.106666669 -0.0314914696 0
0.103333332 -0.0314914696 0
0.100000001 -0.0314914696 0
0.0966666639 -0.0314914696 0
0.0933333337 -0.0314914696 0
0.0900000036 -0.0314914696 0
0.086666666 -0.0314914696 0
0.0833333358 -0.0314914696 0
0.0799999982 -0.0314914696 0
0.0766666681 -0.0314914696 0
0.0733333305 -0.0314914696 0
0.0700000003 -0.0314914696 0
0.0666666701 -0.0314914696 0
0.0633333325 -0.0314914696 0
0.0599999987 -0.0314914696 0
0.0566666685 -0.0314914696 0
0.0533333346 -0.0314914696 0
0.0500000007 -0.0314914696 0
0.0466666669 -0.0314914696 0
0.043333333 -0.0314914696 0
0.0399999991 -0.0314914696 0
0.0366666652 -0.0314914696 0
0.135000005 -0.0343782231 0
0.13166666 -0.0343782231 0
0.12833333 -0.0343782231 0
0.125 -0.0343782231 0
0.12166667 -0.0343782231 0
0.118333332 -0.0343782231 0
0.115000002 -0.0343782231 0
0.111666664 -0.0343782231 0
0.108333334 -0.0343782231 0
0.104999997 -0.0343782231 0
0.101666667 -0.0343782231 0
0.0983333364 -0.0343782231 0
0.0949999988 -0.0343782231 0
0.0916666687 -0.0343782231 0
0.088333331 -0.0343782231 0
0.0850000009 -0.0343782231 0
0.0816666633 -0.0343782231 0
0.0783333331 -0.0343782231 0
0.075000003 -0.0343782231 0
0.0716666654 -0.0343782231 0
0.0683333352 -0.0343782231 0
0.0649999976 -0.0343782231 0
0.0616666675 -0.0343782231 0
0.0583333336 -0.0343782231 0
0.0549999997 -0.0343782231 0
0.0516666658 -0.0343782231 0
0.0483333319 -0.0343782231 0
0.0450000018 -0.0343782231 0
0.0416666679 -0.0343782231 0
0.038333334 -0.0343782231 0
0.0350000001 -0.0343782231 0
0.13333334 -0.0372649729 0
0.129999995 -0.0372649729 0
0.126666665 -0.0372649729 0
0.123333335 -0.0372649729 0
0.119999997 -0.0372649729 0
0.116666667 -0.0372649729 0
0.113333337 -0.0372649729 0
0.109999999 -0.0372649729 0
0.106666669 -0.0372649729 0
0.103333332 -0.0372649729 0
0.100000001 -0.0372649729 0
0.0966666639 -0.0372649729 0
0.0933333337 -0.0372649729 0
0.0900000036 -0.0372649729 0
0.086666666 -0.0372649729 0
0.0833333358 -0.0372649729 0
0.0799999982 -0.0372649729 0
0.0766666681 -0.0372649729 0
0.0733333305 -0.0372649729 0
0.0700000003 -0.0372649729 0
0.0666666701 -0.0372649729 0
0.0633333325 -0.0372649729 0
0.0599999987 -0.0372649729 0
0.0566666685 -0.0372649729 0
0.0533333346 -0.0372649729 0
0.0500000007 -0.0372649729 0
0.0466666669 -0.0372649729 0
0.043333333 -0.0372649729 0
0.0399999991 -0.0372649729 0
0.0366666652 -0.0372649729 0
0.0333333351 -0.0372649729 0
0.13166666 -0.0401517227 0
0.12833333 -0.0401517227 0
0.125 -0.0401517227 0
0.12166667 -0.0401517227 0
0.118333332 -0.0401517227 0
0.115000002 -0.0401517227 0
0.111666664 -0.0401517227 0
[...]
POINT_DATA 961
SCALARS Temp float 1
LOOKUP_TABLE default
437.1498480774516
389.5698097509462
348.802524783752
315.6221075258296
289.63571150230945
270.03855354503656
255.8039093798333
245.8417184272256
239.12036004108668
234.7454864297264
231.99593441738287
230.32565870023302
229.34388184587038
228.7849575762358
228.47672648741653
228.31273095415384
228.23061885430184
228.19720897323248
228.1998548112402
228.24367506234097
228.35470696595794
228.58951035377115
229.05191154312763
229.9168595868384
231.45930271075358
234.08289914335742
238.33967987200072
244.92992312801704
254.67453520400505
268.4657261527246
287.4319169258876
389.5698240133529
343.2487793377938
304.9121765183156
274.26659704110017
250.66661821541143
233.15717257308606
220.6395130181453
212.01298411642895
206.2788970262345
202.59978528645564
200.31908411280878
198.95170085106076
198.15800444274808
197.71165287851105
197.46871551004503
197.3420015655521
197.28206123944057
197.26487548392853
197.28576968848108
197.35933658945237
197.52565588921834
197.86349500937843
198.51095911819453
199.69269817320458
201.75014165389783
205.16761290993514
210.58380911378262
218.77778831599036
230.62265553876915
247.0164271705192
268.46574589194086
348.8024782415772
304.91215452851907
269.0575911291356
240.77373218799428
219.2481000194283
203.4477725323781
192.26102809937328
184.6186759575327
179.5781273043249
176.3661514937437
174.38694213253862
173.20648442376245
172.5244140279178
172.1425257590441
171.93596971148241
171.83008785707577
171.78387055170938
171.77990617263256
171.82051213659696
171.93007635381224
172.16408303503172
172.62547185757188
173.488313241659
175.02684248827205
177.6447891221675
181.8961238767472
188.48568789721034
198.23835333909852
212.02760393063704
230.62264626023156
254.67454587220942
315.6220487055624
274.2665646691875
240.77373214564432
214.5570001693833
194.73424904262097
180.26039585202156
170.05456756039982
163.1033465067635
158.52806082307075
155.61610713466195
153.82265629410665
152.75291123899362
152.13455227230702
151.78832091548853
151.60163980299657
151.50778736961004
151.47140555454027
151.48030679827056
151.54349353940827
151.6956111415263
152.00839523118927
152.60953305746258
153.70822657381592
155.62439781238606
158.8150656768039
163.88780775498432
171.58952234877862
182.75940286280638
198.23836945355177
218.77780151175074
244.9299146250316
289.6356561456274
250.66658758331764
219.24808265132742
194.73432148760872
176.23603579010197
162.74094243578898
153.22430557553383
146.73669665830664
142.46009985083595
139.7328318475832
138.04924510346592
137.04254509893275
136.45925500027016
136.13221434826588
135.95644879564858
135.8702563488802
135.842314562063
135.8649745950661
135.95385000087933
136.1540437759073
136.55351185887696
137.3036083378184
138.64535242313707
140.9373613468223
144.67792076468743
150.51073409654478
159.2032030665833
171.58951530023228
188.48568300546265
210.58380763153914
238.3396855765264
270.0384971220821
233.15721136428866
203.4478235659095
180.2603633348942
162.74092958484323
149.93427809224957
140.88029425901263
134.6903973119775
130.5976360824531
127.97952574212803
126.35842903313056
125.38632658594946
124.82173962033039
124.5049009091514
124.33545417716876
124.25497411014753
124.23528131591081
124.27290568364769
124.38993334995904
124.64162324531286
125.13111730647569
126.03083452472849
127.608430292454
130.25249276959437
134.48993636897444
140.9850753038886
150.51073071540551
163.88780915210336
181.89613078553202
205.16759129244264
234.08289379984507
255.80392000774384
220.6395378748682
192.2610767855536
170.05452920955892
153.2242898694531
140.8802899503837
132.1236484602787
126.11712940914875
122.13306209878871
119.57702513692425
117.99017678978034
117.03643431792732
116.48159774746094
116.17027709325686
116.00493385399389
115.92942428853888
115.91820822308644
115.97170305055803
116.11809569911671
116.42194502705293
116.99966860819627
118.04108363124493
119.83438021846735
122.78922439543894
127.45001272266481
134.48993227025386
144.6779122886239
158.81505348099614
177.64478809205085
201.75013979548675
231.4593112753981
245.84173458481283
212.01301215556887
184.61861739703517
163.1033119022633
146.73669682538224
134.6904096015759
126.11712629595246
120.21913513398923
116.29691421168796
113.77491231300299
112.20620068821155
111.26193556541818
110.7121583985215
110.40403157602032
110.2417932760337
110.17101498244669
110.16845537272717
110.23806621916071
110.41348791405713
110.76726211006546
111.42661543270253
112.59466720210553
114.5741048562509
117.78786606855797
122.78922201244255
130.25248927731406
140.93736354771875
155.62439923027333
175.0268275979433
199.69267872123325
229.91684935804793
239.12036830597805
206.278931396073
179.57808274439782
158.52804295096243
142.46010269085951
130.5976250344063
122.13305908790674
116.29692317091838
112.40865352844027
109.90468256633989
108.34529695829598
107.40584341397414
106.85877057972546
106.55273694727516
106.39316665940038
106.32699869393888
106.33298611698119
106.41815736206853
106.62074431249758
107.01968989317443
107.75039449169556
109.02534959582688
111.15651884481976
114.57410714753044
119.83438120846198
127.60842985165294
138.64535102343825
153.70822222677972
173.48831686409216
198.51096641408486
229.05193052564647
234.74552535641695
202.59972087307375
176.36612760664073
155.6161029941582
139.73284461304462
127.979524608031
119.57703146994278
113.77490996069224
109.90468072451445
107.40998408484836
105.85530543029196
104.91832171031015
104.3728291541607
104.06838691792589
103.91126475320755
103.84951586955842
103.8635721483074
103.962997640513
104.18964860525611
104.6272520935222
105.4169339269522
106.77722313722361
109.02534788418163
112.5946668857389
118.0410832260222
126.03083367939439
137.30360765865635
152.60951499940109
172.62545684977243
197.86347804753652
228.5895019868208
231.99599520739278
200.31903323078384
174.38692820786565
153.82266242862752
138.04923353615558
126.35843022488095
117.99018511419851
112.20620115895522
108.34529925127232
105.85530519996719
104.303026886513
103.36741101051844
102.82300715155036
102.51993752222015
102.365102828694
102.30745240288853
102.32876880590712
102.440584388132
102.68743057415597
103.15635655224698
103.99218070078294
105.41693605249829
107.75039503960045
111.42661388519377
116.99966616737203
125.13111604686594
136.55350890281335
152.00839329472723
172.16408841673467
197.525664373028
228.35469377329372
230.32559765662697
198.9516673642997
173.20648177648255
152.75292385479207
137.04253511071363
125.38633130289413
117.03642909804219
111.26193663960568
107.40583933380599
104.91832162159463
103.36741272210801
102.43273744834119
101.88926733838903
101.58749567859552
101.43479777064496
101.38081864961234
101.40837059433174
101.53042055307793
101.7933428645305
102.28632544642694
103.15635820431437
104.62725325897978
107.01968910643956
110.76726557359144
116.42194969521748
124.64163076889074
136.1540385425708
151.6956049180345
171.93007776375023
197.35933863793434
228.24368904936605
229.34385198106895
198.15799728082155
172.52443097752712
152.1345375972131
136.4592570445991
124.82175315343706
116.48159656735936
110.71216303044072
106.85876873007679
104.37283061250777
102.82300618966349
101.88926675412038
101.34680998297677
101.04637837628675
100.89569529882996
100.84492442560371
100.87762016205352
101.00773268625576
101.28282046816703
101.79334145775562
102.68743013292641
104.18965025480558
106.62074135032452
110.41348682459271
116.11809392250944
124.38993079714028
135.9538482103289
151.54349191164357
171.82051904316378
197.28574685730547
228.19985875175237
228.7849332732434
197.71165070904522
172.14254889669368
151.7883079613771
136.13221856534906
124.50489210201945
116.17027781350018
110.40402781632572
106.55273572554242
104.06838909308307
102.51993638241726
101.58749569942582
101.046378229237
100.74748632922051
100.59878751219702
100.55081861673233
100.5876454167754
100.72385832541842
101.00773246621264
101.5304209409847
102.44058427343148
103.96299867434456
106.41815708930956
110.23806907822728
115.9717078302888
124.27290200440682
135.86497004040928
151.4803015946104
171.77990765280367
197.26487925587983
228.1972080958353
228.4767246072444
197.46873418600788
171.93595515931213
151.6016404173573
135.95646562464535
124.33545236058058
116.00494106337325
110.24179249953885
106.39316660208118
103.91126428878547
102.3651028416382
101.43479818973863
100.89569514083323
100.59878770245736
100.45221881010059
100.40679475258527
100.44693595172423
100.5876452703373
100.8776197933353
101.40837011992237
102.32876885090506
103.86357143356764
106.33298329535887
110.16845438512922
115.9182064322227
124.23528017856351
135.84231366922023
151.4714051923214
171.78385397851454
197.282057347472
228.23061039617977
228.31273134476433
197.34202380552796
171.8300751691021
151.50779103242002
135.87024355977238
124.25497406559316
115.92941789206878
110.17101545524105
106.32700016717696
103.84951545628459
102.30745264128424
101.38081763609551
100.84492449715567
100.55081834928623
100.40679475977426
100.36388667424733
100.40679483539812
100.55081845951572
100.84492486552575
101.38081808950164
102.30745213625849
103.84951699124215
106.32699868363619
110.1710182892156
115.92942152907693
124.25497087758218
135.87025332199255
151.50778279516703
171.83009234286834
197.34199157921842
228.31273282782686
228.23064103115317
197.28203799968267
171.78387763697654
151.47142567235647
135.84231105106088
124.23529061265333
115.91820687092532
110.1684583264538
106.33298331515107
103.8635733430678
102.32877025687799
101.40837013475803
100.87762072714526
100.58764536495036
100.44693602977229
100.40679489226562
100.45221893079535
100.59878737330199
100.89569530570562
101.43479749960211
102.3651017984453
103.9112643408404
106.39316401735051
110.2417920798022
116.00493338577218
124.33545384826303
135.9564492870268
151.60162055155124
171.93596677202748
197.4686987039055
228.47671856477805
228.1972406836989
197.26485802103866
171.77991752160796
151.48028772502187
135.8649737218819
124.27289625707226
115.97170334818186
110.23807110418998
106.41815459819092
103.96299944131783
102.44058349857387
101.53042031340127
101.00773225496322
100.72385817009275
100.5876455485667
100.55081864957948
100.59878755754139
100.74748653026663
101.04637847200438
101.58749536597438
102.51993727002646
104.06838802518314
106.55273740591804
110.40402994299782
116.17027510205187
124.50489837393482
136.13221096054693
151.7883189047515
172.1425172944666
197.7116443529562
228.78495880767204
228.19982184479215
197.28575939342554
171.82052976672261
151.54347621050442
135.95385304003955
124.38992465611868
116.1180950097659
110.41348364273586
106.62074224250739
104.18965114737713
102.68742927042265
101.79334247127038
101.2828202321355
101.00773252339063
100.87762013743418
100.84492441466354
100.89569515907061
101.04637854785135
101.34680974654518
101.88926648815332
102.82300683218813
104.37283001698415
106.85877013530153
110.71216036929594
116.48160146893507
124.82174650372474
136.45924919460646
152.13455551367667
172.524413365358
198.15800466747697
229.3438925493466
228.24366773314895
197.35934967375863
171.93005846847453
151.69560880965471
136.15403003632724
124.64162416564379
116.42195247884153
110.76726181688771
107.01969029358253
104.62725204556611
103.15635721227486
102.2863250873423
101.79334257888745
101.5304208496683
101.40837061970149
101.38081865355458
101.43479786810016
101.58749578977651
101.88926712243642
102.432737937536
103.36741198909176
104.91832259177512
107.4058405123492
111.26193453329246
117.03643306061724
125.38632514397119
137.04254281116704
152.7528983520866
173.2064772124672
198.95169293307868
230.32565902424943
228.35470335742127
197.52567424403762
172.16406679862487
152.00839871958894
136.55350022421175
125.13111751634497
116.99966151760468
111.4266152674327
107.75039645435804
105.41693472885245
103.9921823742253
103.15635622116069
102.68743031868746
102.44058430991939
102.32876870897137
102.30745239082773
102.3651029562349
102.51993736622364
102.82300701345979
103.3674113630459
104.30302645914524
105.85530601057772
108.34529737107411
112.20620438260255
117.99018024613939
126.35842466505306
138.04924775147657
153.8226509747074
174.3869407187799
200.31908376263402
231.99593084016377
228.58950851812077
197.86345104165125
172.62546091078912
152.60950354527685
137.3035987723426
126.03083760355267
118.04107800923951
112.59466874391568
109.02534615483351
106.77722169806742
105.41693337858065
104.62725161709747
104.18964913724375
103.96299771822372
103.86357213834903
103.84951590962675
103.91126478320713
104.06838679108982
104.37282942532042
104.91832125667194
105.85530604867677
107.4099847710866
109.9046793671314
113.77491275497587
119.5770274500501
127.97953128281095
139.73282729106236
155.61610445433303
176.36615924109236
202.59979638096195
234.7455025082008
229.05195901278893
198.5109585694546
173.48833959936522
153.7082242133818
138.64536389131993
127.60843222497216
119.83439044763972
114.57411531822977
111.15652216912302
109.02535689900118
107.75039848064355
107.019693732659
106.62074825572994
106.41816115932357
106.33299019691563
106.32700279398796
106.39317044684005
106.5527407723562
106.85877451581727
107.40584666969963
108.34530069627695
109.90468416336427
112.40865783729492
116.29692110596407
122.1330556466071
130.59763480595922
142.46009242837263
158.52805120754385
179.57812295860987
206.27886686905825
239.12034156708066
229.91684303407948
199.69270514983393
175.0268307309672
155.62440247521144
140.9373809689403
130.25249271014815
122.78923357305294
117.78787157609025
114.57411003056036
112.5946730917589
111.4266210875509
110.76726919706381
110.41349427691917
110.23807232820873
110.16846145246768
110.17102098808486
110.24179921726454
110.4040376666249
110.71216397624394
111.26194168114206
112.20620643220852
113.77491644670994
116.29692048150515
120.21913596250329
126.11713372300892
134.69039806043685
146.73669808591035
163.10333535866783
184.61867280508864
212.01297719229126
245.8417183834859
231.4592968461246
201.75015952146637
177.64478422548476
158.81506489884464
144.67791146923915
134.48994157397433
127.45002143958723
122.78922699570208
119.83438875606076
118.04108785418984
116.99967267985144
116.42194926311194
116.11809970582489
115.97170765535616
115.91821284785487
115.92942855661339
116.00493834226225
116.17028159342298
116.48160186429253
117.03643887825524
117.9901802423586
119.57703059319444
122.13306367693009
126.11713089265349
132.12365998326268
140.88028747190268
153.2243022833884
170.05456692498393
192.26102378151018
220.6395118196055
255.8039219590351
234.0829020566709
205.16757599913467
181.8961186604435
163.88781690388714
150.51072317682028
140.9850795310252
134.48993384684312
130.2524905463264
127.6084293784023
126.03083353262102
125.13111857566963
124.64162371963701
124.38993346054114
124.27290573486835
124.23528127354065
124.2549741768646
124.33545434890428
124.5049008909995
124.82174017249851
125.38632689971911
126.35842879968496
127.97952739355132
130.5976346862326
134.69040134326684
140.88028536084556
149.93427963548947
162.740948902331
180.26040760208815
203.447787987448
233.15718424353017
270.0384977117034
238.33968267688792
210.58378137497908
188.4856771217842
171.5894963306457
159.20319771772384
150.51072897312983
144.67790854895048
140.937357168345
138.64534314363274
137.30359896833178
136.55350272831467
136.1540343114083
135.95384148523365
135.86496613702835
135.84230565103041
135.87024784351027
135.95644021382208
136.13220553537914
136.45924661822815
137.0425362773414
138.04923778864804
139.7328222179073
142.46009097344376
146.73669524418725
153.22429389290403
162.74094215236823
176.23605450387632
194.734260773457
219.2480385767866
250.66655877770913
289.6356506075448
244.9299279212442
218.77781700721437
198.23840641441862
182.7594208239494
171.58955270713116
163.88782918992717
158.81508687625455
155.62442005771402
153.7082484330068
152.6095576950858
152.00841889786372
151.69563424140574
151.54351648047893
151.4803295765891
151.47142856942477
151.5078103885348
151.60166271748227
151.78834427694125
152.13457510687073
152.75293369023706
153.82267970084982
155.61612778490527
158.52808427045292
163.10335871389083
170.05458530000783
180.26042396917532
194.7342919314971
214.55696616583816
240.77369330615556
274.26653441427743
315.6220521150893
254.67455713219132
230.62267971322632
212.02762035831475
198.238383020281
188.48571650299107
181.89614347588054
177.64481736581857
175.02686467702043
173.4883351257705
172.6254938493505
172.16410443737053
171.93009889502375
171.82053475754304
171.7799282582451
171.78389315650656
171.8301102511155
171.93599183045754
172.1425480955142
172.5244360060778
173.2065071019732
174.38696258860472
176.3661720685705
179.57815205797093
184.6186904077627
192.26104858536536
203.44780369847436
219.2480561389217
240.773692625083
269.05755052624437
304.9121193527158
348.8024735296751
268.46574887475055
247.01645061359238
230.6226581228979
218.7778040474922
210.5838155180774
205.16761926801655
201.75014924367284
199.69270550771913
198.51096983818115
197.86350465158222
197.52566475438638
197.35934531036514
197.28577824599827
197.26488446974884
197.28207015533494
197.34201046203492
197.46872485767958
197.7116616276565
198.1580131720743
198.95171036686725
200.3190915441602
202.59979484395845
206.27889758558507
212.01298890873431
220.6395252904666
233.1571956439888
250.66657002056132
274.2665378178983
304.91211174841465
343.24871845451673
389.5697270203331
287.43193325961806
268.46572041518533
254.6745424656519
244.92992941345224
238.33967646899526
234.08290489600307
231.4593020183442
229.91685962670593
229.051911626013
228.589508914212
228.3547070835555
228.24367512948643
228.19985476665963
228.1972092859705
228.23061892603505
228.31273097910338
228.47672615444785
228.7849576022642
229.3438822098492
230.32565723038934
231.99593320010393
234.74548894776424
239.1203542211142
245.84171689272327
255.80391495612923
270.03849166588134
289.6356528722999
315.62204106642673
348.80244918687333
389.56970935054756
437.1494405911599
