# vtk DataFile Version 2.0
Unstructured Grid Example
ASCII
DATASET UNSTRUCTURED_GRID

POINTS 961 float
0.100000001 0.00499999989 0
0.0966666639 0.00499999989 0
0.0933333337 0.00499999989 0
0.0900000036 0.00499999989 0
0.086666666 0.00499999989 0
0.0833333358 0.00499999989 0
0.0799999982 0.00499999989 0
0.0766666681 0.00499999989 0
0.0733333305 0.00499999989 0
0.0700000003 0.00499999989 0
0.0666666701 0.00499999989 0
0.0633333325 0.00499999989 0
0.0599999987 0.00499999989 0
0.0566666685 0.00499999989 0
0.0533333346 0.00499999989 0
0.0500000007 0.00499999989 0
0.0466666669 0.00499999989 0
0.043333333 0.00499999989 0
0.0399999991 0.00499999989 0
0.0366666652 0.00499999989 0
0.0333333351 0.00499999989 0
0.0299999993 0.00499999989 0
0.0266666673 0.00499999989 0
0.0233333334 0.00499999989 0
0.0199999996 0.00499999989 0
0.0166666675 0.00499999989 0
0.0133333337 0.00499999989 0
0.00999999978 0.00499999989 0
0.00666666683 0.00499999989 0
0.00333333341 0.00499999989 0
0.0 0.00499999989 0
0.100000001 0.00166666671 0
0.0966666639 0.00166666671 0
0.0933333337 0.00166666671 0
0.0900000036 0.00166666671 0
0.086666666 0.00166666671 0
0.0833333358 0.00166666671 0
0.0799999982 0.00166666671 0
0.0766666681 0.00166666671 0
0.0733333305 0.00166666671 0
0.0700000003 0.00166666671 0
0.0666666701 0.00166666671 0
0.0633333325 0.00166666671 0
0.0599999987 0.00166666671 0
0.0566666685 0.00166666671 0
0.0533333346 0.00166666671 0
0.0500000007 0.00166666671 0
0.0466666669 0.00166666671 0
0.043333333 0.00166666671 0
0.0399999991 0.00166666671 0
0.0366666652 0.00166666671 0
0.0333333351 0.00166666671 0
0.0299999993 0.00166666671 0
0.0266666673 0.00166666671 0
0.0233333334 0.00166666671 0
0.0199999996 0.00166666671 0
0.0166666675 0.00166666671 0
0.0133333337 0.00166666671 0
0.00999999978 0.00166666671 0
0.00666666683 0.00166666671 0
0.00333333341 0.00166666671 0
0.0 0.00166666671 0
0.100000001 -0.00166666671 0
0.0966666639 -0.00166666671 0
0.0933333337 -0.00166666671 0
0.0900000036 -0.00166666671 0
0.086666666 -0.00166666671 0
0.0833333358 -0.00166666671 0
0.0799999982 -0.00166666671 0
0.0766666681 -0.00166666671 0
0.0733333305 -0.00166666671 0
0.0700000003 -0.00166666671 0
0.0666666701 -0.00166666671 0
0.0633333325 -0.00166666671 0
0.0599999987 -0.00166666671 0
0.0566666685 -0.00166666671 0
0.0533333346 -0.00166666671 0
0.0500000007 -0.00166666671 0
0.0466666669 -0.00166666671 0
0.043333333 -0.00166666671 0
0.0399999991 -0.00166666671 0
0.0366666652 -0.00166666671 0
0.0333333351 -0.00166666671 0
0.0299999993 -0.00166666671 0
0.0266666673 -0.00166666671 0
0.0233333334 -0.00166666671 0
0.0199999996 -0.00166666671 0
0.0166666675 -0.00166666671 0
0.0133333337 -0.00166666671 0
0.00999999978 -0.00166666671 0
0.00666666683 -0.00166666671 0
0.00333333341 -0.00166666671 0
0.0 -0.00166666671 0
0.100000001 -0.00499999989 0
0.0966666639 -0.00499999989 0
0.0933333337 -0.00499999989 0
0.0900000036 -0.00499999989 0
0.086666666 -0.00499999989 0
0.0833333358 -0.00499999989 0
0.0799999982 -0.00499999989 0
0.0766666681 -0.00499999989 0
0.0733333305 -0.00499999989 0
0.0700000003 -0.00499999989 0
0.0666666701 -0.00499999989 0
0.0633333325 -0.00499999989 0
0.0599999987 -0.00499999989 0
0.0566666685 -0.00499999989 0
0.0533333346 -0.00499999989 0
0.0500000007 -0.00499999989 0
0.0466666669 -0.00499999989 0
0.043333333 -0.00499999989 0
0.0399999991 -0.00499999989 0
0.0366666652 -0.00499999989 0
0.0333333351 -0.00499999989 0
0.0299999993 -0.00499999989 0
0.0266666673 -0.00499999989 0
0.0233333334 -0.00499999989 0
0.0199999996 -0.00499999989 0
0.0166666675 -0.00499999989 0
0.0133333337 -0.00499999989 0
0.00999999978 -0.00499999989 0
0.00666666683 -0.00499999989 0
0.00333333341 -0.00499999989 0
0.0 -0.00499999989 0
0.100000001 -0.00833333377 0
0.0966666639 -0.00833333377 0
0.0933333337 -0.00833333377 0
0.0900000036 -0.00833333377 0
0.086666666 -0.00833333377 0
0.0833333358 -0.00833333377 0
0.0799999982 -0.00833333377 0
0.0766666681 -0.00833333377 0
0.0733333305 -0.00833333377 0
0.0700000003 -0.00833333377 0
0.0666666701 -0.00833333377 0
0.0633333325 -0.00833333377 0
0.0599999987 -0.00833333377 0
0.0566666685 -0.00833333377 0
0.0533333346 -0.00833333377 0
0.0500000007 -0.00833333377 0
0.0466666669 -0.00833333377 0
0.043333333 -0.00833333377 0
0.0399999991 -0.00833333377 0
0.0366666652 -0.00833333377 0
0.0333333351 -0.00833333377 0
0.0299999993 -0.00833333377 0
0.0266666673 -0.00833333377 0
0.0233333334 -0.00833333377 0
0.0199999996 -0.00833333377 0
0.0166666675 -0.00833333377 0
0.0133333337 -0.00833333377 0
0.00999999978 -0.00833333377 0
0.00666666683 -0.00833333377 0
0.00333333341 -0.00833333377 0
0.0 -0.00833333377 0
0.100000001 -0.0116666667 0
0.0966666639 -0.0116666667 0
0.0933333337 -0.0116666667 0
0.0900000036 -0.0116666667 0
0.086666666 -0.0116666667 0
0.0833333358 -0.0116666667 0
0.0799999982 -0.0116666667 0
0.0766666681 -0.0116666667 0
0.0733333305 -0.0116666667 0
0.0700000003 -0.0116666667 0
0.0666666701 -0.0116666667 0
0.0633333325 -0.0116666667 0
0.0599999987 -0.0116666667 0
0.0566666685 -0.0116666667 0
0.0533333346 -0.0116666667 0
0.0500000007 -0.0116666667 0
0.0466666669 -0.0116666667 0
0.043333333 -0.0116666667 0
0.0399999991 -0.0116666667 0
0.0366666652 -0.0116666667 0
0.0333333351 -0.0116666667 0
0.0299999993 -0.0116666667 0
0.0266666673 -0.0116666667 0
0.0233333334 -0.0116666667 0
0.0199999996 -0.0116666667 0
0.0166666675 -0.0116666667 0
0.0133333337 -0.0116666667 0
0.00999999978 -0.0116666667 0
0.00666666683 -0.0116666667 0
0.00333333341 -0.0116666667 0
0.0 -0.0116666667 0
0.100000001 -0.0149999997 0
0.0966666639 -0.0149999997 0
0.0933333337 -0.0149999997 0
0.0900000036 -0.0149999997 0
0.086666666 -0.0149999997 0
0.0833333358 -0.0149999997 0
0.0799999982 -0.0149999997 0
0.0766666681 -0.0149999997 0
0.0733333305 -0.0149999997 0
0.0700000003 -0.0149999997 0
0.0666666701 -0.0149999997 0
0.0633333325 -0.0149999997 0
0.0599999987 -0.0149999997 0
0.0566666685 -0.0149999997 0
0.0533333346 -0.0149999997 0
0.0500000007 -0.0149999997 0
0.0466666669 -0.0149999997 0
0.043333333 -0.0149999997 0
0.0399999991 -0.0149999997 0
0.0366666652 -0.0149999997 0
0.0333333351 -0.0149999997 0
0.0299999993 -0.0149999997 0
0.0266666673 -0.0149999997 0
0.0233333334 -0.0149999997 0
0.0199999996 -0.0149999997 0
0.0166666675 -0.0149999997 0
0.0133333337 -0.0149999997 0
0.00999999978 -0.0149999997 0
0.00666666683 -0.0149999997 0
0.00333333341 -0.0149999997 0
0.0 -0.0149999997 0
0.100000001 -0.0183333326 0
0.0966666639 -0.0183333326 0
0.0933333337 -0.0183333326 0
0.0900000036 -0.0183333326 0
0.086666666 -0.0183333326 0
0.0833333358 -0.0183333326 0
0.0799999982 -0.0183333326 0
0.0766666681 -0.0183333326 0
0.0733333305 -0.0183333326 0
0.0700000003 -0.0183333326 0
0.0666666701 -0.0183333326 0
0.0633333325 -0.0183333326 0
0.0599999987 -0.0183333326 0
0.0566666685 -0.0183333326 0
0.0533333346 -0.0183333326 0
0.0500000007 -0.0183333326 0
0.0466666669 -0.0183333326 0
0.043333333 -0.0183333326 0
0.0399999991 -0.0183333326 0
0.0366666652 -0.0183333326 0
0.0333333351 -0.0183333326 0
0.0299999993 -0.0183333326 0
0.0266666673 -0.0183333326 0
0.0233333334 -0.0183333326 0
0.0199999996 -0.0183333326 0
0.0166666675 -0.0183333326 0
0.0133333337 -0.0183333326 0
0.00999999978 -0.0183333326 0
0.00666666683 -0.0183333326 0
0.00333333341 -0.0183333326 0
0.0 -0.0183333326 0
0.100000001 -0.0216666665 0
0.0966666639 -0.0216666665 0
0.0933333337 -0.0216666665 0
0.0900000036 -0.0216666665 0
0.086666666 -0.0216666665 0
0.0833333358 -0.0216666665 0
0.0799999982 -0.0216666665 0
0.0766666681 -0.0216666665 0
0.0733333305 -0.0216666665 0
0.0700000003 -0.0216666665 0
0.0666666701 -0.0216666665 0
0.0633333325 -0.0216666665 0
0.0599999987 -0.0216666665 0
0.0566666685 -0.0216666665 0
0.0533333346 -0.0216666665 0
0.0500000007 -0.0216666665 0
0.0466666669 -0.0216666665 0
0.043333333 -0.0216666665 0
0.0399999991 -0.0216666665 0
0.0366666652 -0.0216666665 0
0.0333333351 -0.0216666665 0
0.0299999993 -0.0216666665 0
0.0266666673 -0.0216666665 0
0.0233333334 -0.0216666665 0
0.0199999996 -0.0216666665 0
0.0166666675 -0.0216666665 0
0.0133333337 -0.0216666665 0
0.00999999978 -0.0216666665 0
0.00666666683 -0.0216666665 0
0.00333333341 -0.0216666665 0
0.0 -0.0216666665 0
0.100000001 -0.0250000004 0
0.0966666639 -0.0250000004 0
0.0933333337 -0.0250000004 0
0.0900000036 -0.0250000004 0
0.086666666 -0.0250000004 0
0.0833333358 -0.0250000004 0
0.0799999982 -0.0250000004 0
0.0766666681 -0.0250000004 0
0.0733333305 -0.0250000004 0
0.0700000003 -0.0250000004 0
0.0666666701 -0.0250000004 0
0.0633333325 -0.0250000004 0
0.0599999987 -0.0250000004 0
0.0566666685 -0.0250000004 0
0.0533333346 -0.0250000004 0
0.0500000007 -0.0250000004 0
0.0466666669 -0.0250000004 0
0.043333333 -0.0250000004 0
0.0399999991 -0.0250000004 0
0.0366666652 -0.0250000004 0
0.0333333351 -0.0250000004 0
0.0299999993 -0.0250000004 0
0.0266666673 -0.0250000004 0
0.0233333334 -0.0250000004 0
0.0199999996 -0.0250000004 0
0.0166666675 -0.0250000004 0
0.0133333337 -0.0250000004 0
0.00999999978 -0.0250000004 0
0.00666666683 -0.0250000004 0
0.00333333341 -0.0250000004 0
0.0 -0.0250000004 0
0.100000001 -0.0283333343 0
0.0966666639 -0.0283333343 0
0.0933333337 -0.0283333343 0
0.0900000036 -0.0283333343 0
0.086666666 -0.0283333343 0
0.0833333358 -0.0283333343 0
0.0799999982 -0.0283333343 0
0.0766666681 -0.0283333343 0
0.0733333305 -0.0283333343 0
0.0700000003 -0.0283333343 0
0.0666666701 -0.0283333343 0
0.0633333325 -0.0283333343 0
0.0599999987 -0.0283333343 0
0.0566666685 -0.0283333343 0
0.0533333346 -0.0283333343 0
0.0500000007 -0.0283333343 0
0.0466666669 -0.0283333343 0
0.043333333 -0.0283333343 0
0.0399999991 -0.0283333343 0
0.0366666652 -0.0283333343 0
0.0333333351 -0.0283333343 0
0.0299999993 -0.0283333343 0
0.0266666673 -0.0283333343 0
0.0233333334 -0.0283333343 0
0.0199999996 -0.0283333343 0
0.0166666675 -0.0283333343 0
0.0133333337 -0.0283333343 0
0.00999999978 -0.0283333343 0
0.00666666683 -0.0283333343 0
0.00333333341 -0.0283333343 0
0.0 -0.0283333343 0
[...]
POINT_DATA 961
SCALARS Temp float 1
LOOKUP_TABLE default
276.7010978633197
244.83758324142124
222.63696538892944
208.52869967439278
200.3519092301441
196.0176208184024
193.90609815589121
192.95493661748893
192.55611830593946
192.39942395890006
192.34136456215748
192.32095627272537
192.31411500332752
192.31192081274506
192.31125732409575
192.31111296732908
192.31125732405263
192.31192081258985
192.31411500726793
192.3209562854289
192.34136451984722
192.39942399952574
192.55611855741313
192.9549365518207
193.9060995585862
196.01761881377362
200.35191161114722
208.52869206470615
222.63696791245656
244.83761279118102
276.7010975536382
244.83761497108452
211.8736698027425
188.90477756017384
174.30693440728928
165.845441481645
161.35966399698057
159.1740384468097
158.18935539173935
157.7764222773256
157.61415935098907
157.55402843130298
157.53288922310207
157.5258020557622
157.5235287339577
157.52284124561368
157.52269165648792
157.52284124556903
157.52352873379672
157.52580205984458
157.53288923626107
157.5540283874803
157.61415939306067
157.77642253771373
158.18935532374522
159.1740398988198
161.35966192211367
165.8454439456879
174.30692653302333
188.90478017111485
211.8737003739952
244.83761465073073
222.6369694875431
188.9047482065435
165.39645476611386
150.45226090350178
141.787485459823
137.1924076165021
134.95271702587627
133.943295700014
133.51982698840973
133.35336130147934
133.29165028537832
133.26994792657567
133.2626695055856
133.2603340947491
133.25962762821925
133.25947387953363
133.25962762817323
133.26033409458392
133.26266950977862
133.26994794008695
133.29165024039673
133.3533613446482
133.51982725547992
133.94329563028037
134.95271851404246
137.1924054906139
141.78748798342738
150.45225284106007
165.39645743859288
188.90477949284215
222.63696915978758
208.52869242313818
174.30689281874817
150.45224881580268
135.28337002283163
126.48506410516097
121.81716954296539
119.54091263596271
118.51449873868192
118.08368088400522
117.91423934183702
117.8513933839367
117.82928102464592
117.82186158774834
117.81947985708807
117.81875908500093
117.8186021788256
117.81875908495398
117.81947985691947
117.82186159202327
117.82928103841465
117.85139333811718
117.91423938578737
118.08368115576377
118.51449866773136
119.5409141487452
121.81716738277238
126.48506666813056
135.2833618374365
150.4522515279404
174.30692456233731
208.52869209072014
200.35191204915532
165.84541002710935
141.78748400469328
126.48507500977402
117.60619136963618
112.89358700896646
110.59445489693957
109.55720385220712
109.12160784539121
108.95019479805256
108.88658327485183
108.86418959997711
108.85667184971545
108.85425734492839
108.85352631808553
108.85336712854463
108.85352631803795
108.85425734475734
108.85667185404782
108.86418961392359
108.88658322846254
108.95019484252514
109.1216081202204
109.55720378046232
110.59445642524972
112.89358482746817
117.6061939565403
126.48506675066596
141.7874867402135
165.8454420377916
200.35191171407547
196.01761999232568
161.35962861679624
137.19240227687496
121.81717656148491
112.89358303110436
108.15567207179777
105.8433091005425
104.79964707073647
104.36115946660759
104.18852637481638
104.12443077716947
104.101855545546
104.09427311274267
104.0918366569836
104.09109865311267
104.09093789355646
104.09109865306459
104.09183665681098
104.09427311711308
104.10185555960794
104.12443073041646
104.18852641961527
104.36115974331125
104.79964699850892
105.84331063792135
108.15566987807904
112.8935856314045
121.81716826178051
137.19240502503325
161.35966077030722
196.01761965586738
193.90609991328893
159.17400566547113
134.95271441657314
119.54092245963321
110.59445372461637
105.8433119333859
103.52386518496601
102.47668359872412
102.0365674315608
101.8632295319635
101.79884729541337
101.77616198444622
101.7685394474812
101.76608909565068
101.76534659324692
101.76518480889673
101.76534659319864
101.76608909547701
101.7685394518754
101.77616199857877
101.79884724844251
101.86322957695306
102.03656770933087
102.47668352622324
103.52386672725333
105.84330973318419
110.59445633183523
119.54091413932655
134.952717171019
159.17403788922385
193.90609957618074
192.95493706566043
158.18932122090527
133.94329169711474
118.51450715980238
109.55720124978683
104.79964847036496
102.47668215658535
101.42770442198795
100.98673382336553
100.81301570935813
100.74847455233648
100.72572657441052
100.71808062397886
100.71562196582634
100.7148767178845
100.71471429932922
100.71487671783605
100.71562196565208
100.71808062838718
100.72572658858371
100.74847450524334
100.81301575445202
100.98673410170133
101.42770434934276
102.47668370133994
104.79964626697277
109.55720386031567
118.51449882981811
133.94329445445513
158.18935347660943
192.95493672827095
192.5561189652467
157.77638831064107
133.51982320785356
118.08368953757349
109.12160547234217
104.36116109965708
102.03656622177562
100.98673405730736
100.54534504833244
100.3714351617065
100.30681145415217
100.28402997421317
100.27637115579047
100.2739078119487
100.27316097906925
100.2729981887332
100.27316097902063
100.27390781177415
100.27637116020671
100.28402998840834
100.30681140699434
100.37143520685368
100.54534532694856
100.98673398459098
102.03656776768558
104.3611588948033
109.12160808434484
118.08368120335888
133.51982596643458
157.77642057987376
192.55611862774515
192.3994243111389
157.61412506060535
133.35335719402377
117.91424766525677
108.95019208874537
104.18852767032931
101.86322798246157
100.81301560336252
100.3714348213044
100.19743431280234
100.132770374939
100.10997206240177
100.10230658407814
100.09984074584334
100.09909304785477
100.09893005118852
100.0990930478061
100.09984074566866
100.10230658849834
100.10997207660809
100.1327703277493
100.19743435797498
100.37143510005055
100.8130155306133
101.86322952887782
104.18852546484896
108.95019470136201
117.91423932931144
133.35335995310277
157.61415733520442
192.3994239735957
192.34136486895102
157.55399409170371
133.2916461293173
117.85140165880546
108.88658051547476
104.12443202262796
101.79884569526924
100.74847439576357
100.30681106305154
100.13277032427668
100.06808795444793
100.04528168212033
100.03761295498748
100.03514586311665
100.03439771862288
100.03423461357242
100.03439771857416
100.03514586294168
100.03761295940971
100.04528169633195
100.06808790724338
100.13277036946086
100.30681134185438
100.74847432300025
101.79884724189372
104.12442981689534
108.88658312833209
117.8513933221939
133.2916488885849
157.55402636830974
192.34136453139357
192.32095662149143
157.5328549262154
133.269943815035
117.829289345214
108.86418688653428
104.10185683745357
101.7761604308323
100.72572646456696
100.28402962988488
100.10997205857272
100.04528172897561
100.02247190707811
100.01480168412425
100.0123339969144
100.01158563442364
100.01142247548019
100.01158563437487
100.0123339967394
100.01480168854734
100.02247192129217
100.0452816817645
100.10997210376178
100.28402990871083
100.7257263917976
101.77616197753785
104.10185463162483
108.86418949948096
117.82928100835943
133.26994657437024
157.53288720353308
192.3209562839291
192.31411534592388
157.52576775222792
133.26266538744824
117.82186990171485
108.85666912946972
104.09427439784614
101.76853788697977
100.71808050725656
100.27637080456452
100.10230657335752
100.03761299495149
100.01480167722919
100.00713080330587
100.0046628487364
100.00391438554233
100.0037512012365
100.00391438549357
100.00466284856141
100.00713080772937
100.01480169144406
100.0376129477377
100.10230661854857
100.27637108339951
100.7180804344849
101.76853943371506
104.09427219198281
108.85667174244784
117.8218615647761
133.26266814680656
157.525800029786
192.31411500836006
192.31192115200125
157.52349442688
133.2603299730457
117.81948816745793
108.85425462099816
104.09183793838815
101.76608753141234
100.71562184536462
100.27390745697316
100.09984073137379
100.03514589933089
100.01233398626766
100.0046628449846
100.00219477716172
100.00144627010809
100.00128307455358
100.0014462700593
100.00219477698654
100.00466284940823
100.01233400048307
100.03514585211607
100.09984077656556
100.27390773581158
100.71562177259226
101.76608907815809
104.09183573251302
108.85425723398694
117.81947983049128
133.26033273241165
157.5235267045158
192.3119208144371
192.3112576637306
157.52280693890287
133.2596235069151
117.8187673957903
108.85352359456843
104.09109993493985
101.76534502942802
100.71487659784685
100.27316062451747
100.09909303381053
100.03439775526327
100.01158562420272
100.00391438221641
100.00144627053415
100.00069774606719
100.00053454597406
100.00069774601839
100.00144627035911
100.0039143866402
100.01158563841842
100.03439770804808
100.09909307900271
100.27316090335692
100.71487652507409
101.76534657617721
104.0910977290609
108.85352620756053
117.81875905881488
133.25962626628328
157.52283921656243
192.31125732616627
192.31111330717084
157.52265734998596
133.2594697584491
117.81861048984167
108.85336440525485
104.09093917561457
101.76518324530883
100.71471417952412
100.27299783441414
100.09893003737787
100.0342346504466
100.01142246549301
100.00375119814436
100.00128307521338
100.00053454620789
100.00037134491944
100.0005345461591
100.00128307503833
100.00375120256815
100.01142247970867
100.03423460323134
100.09893008256999
100.27299811325403
100.71471410675142
101.76518479205872
104.09093696973464
108.85336701824775
117.81860215286439
133.25947251781778
157.52268962765052
192.31111296960646
192.31125766385094
157.5228069390277
133.2596235070433
117.81876739592107
108.8535235947011
104.09109993507383
101.76534502956274
100.71487659798203
100.27316062465287
100.09909303394622
100.0343977553991
100.01158562433862
100.00391438235226
100.00144627067004
100.00069774620306
100.00053454610996
100.00069774615429
100.00144627049494
100.00391438677603
100.01158563855417
100.03439770818383
100.09909307913836
100.2731609034925
100.71487652520939
101.76534657631193
104.0910977291948
108.85352620769326
117.81875905894583
133.25962626641152
157.5228392166872
192.31125732628652
192.31192115238392
157.52349442727638
133.26032997345303
117.81948816787344
108.85425462141941
104.09183793881328
101.76608753183996
100.71562184579369
100.27390745740308
100.09984073180414
100.0351458997616
100.01233398669842
100.00466284541537
100.0021947775925
100.00144627053888
100.0012830749844
100.00144627049019
100.00219477741747
100.00466284983904
100.01233400091381
100.03514585254665
100.09984077699592
100.27390773624153
100.71562177302133
101.76608907858567
104.09183573293814
108.85425723440822
117.8194798309068
133.26033273281897
157.52352670491226
192.31192081481973
192.31411534712555
157.5257677534729
133.26266538872696
117.8218699030186
108.8566691307908
104.09427439917874
101.76853788831963
100.71808050860066
100.2763708059109
100.10230657470515
100.03761299629973
100.01480167857773
100.00713080465457
100.00466285008523
100.00391438689107
100.00375120258524
100.00391438684244
100.00466284991012
100.007130809078
100.01480169279269
100.03761294908594
100.10230661989618
100.27637108474605
100.71808043582908
101.76853943505483
104.09427219331545
108.85667174376906
117.82186156607983
133.2626681480852
157.52580003103097
192.3141150095617
192.32095662548758
157.53285493035486
133.26994381928534
117.82928934954512
108.86418689092116
104.10185684187655
101.77616043527765
100.72572646902496
100.2840296343497
100.10997206304104
100.04528173344556
100.02247191154889
100.01480168859533
100.01233400138565
100.01158563889491
100.01142247995146
100.01158563884611
100.01233400121062
100.01480169301838
100.02247192576287
100.04528168623447
100.10997210823007
100.28402991317567
100.7257263962556
101.77616198198307
104.10185463604805
108.86418950386792
117.82928101269059
133.26994657862042
157.53288720767245
192.32095628792513
192.34136490060143
157.5539941244852
133.29164616296464
117.85140169307795
108.8865805501716
104.12443205759539
101.79884573039848
100.74847443098352
100.30681109831912
100.13277035956766
100.06808798974984
100.045281717427
100.03761299029618
100.03514589842617
100.03439775393267
100.03423464888229
100.03439775388392
100.03514589825109
100.0376129947183
100.04528173163861
100.06808794254525
100.13277040475187
100.30681137712172
100.74847435822
101.79884727702299
104.12442985186283
108.88658316302897
117.85139335646626
133.29164892223218
157.55402640109088
192.34136456304373
192.3994242889598
157.61412503763611
133.35335717045393
117.91424764125725
108.95019206445781
104.18852764586103
101.86322795788688
100.81301557872935
100.37143479664114
100.19743428812455
100.13277035025453
100.10997203771458
100.10230655938989
100.09984072115469
100.09909302316579
100.09893002649957
100.09909302311715
100.09984072097991
100.10230656381009
100.10997205192089
100.13277030306502
100.19743433329725
100.37143507538728
100.81301550598019
101.86322950430313
104.18852544038063
108.95019467707462
117.91423930531205
133.35335992953287
157.6141573122348
192.39942395141657
192.55611918185204
157.77638853492573
133.51982343789717
118.08368977165944
109.12160570907743
104.36116133801103
102.03656646105114
100.98673429707233
100.54534528834019
100.37143540182699
100.30681169432184
100.28403021440322
100.2763713959884
100.27390805214957
100.27316121927105
100.27299842893511
100.27316121922237
100.2739080519749
100.27637140040449
100.2840302285983
100.3068116471641
100.37143544697419
100.5453455669563
100.986734224356
102.03656800696118
104.36115913315712
109.1216083210801
118.08368143744488
133.51982619647828
157.77642080415856
192.55611884435066
192.9549369175187
158.18932106752678
133.94329153984
118.51450699982115
109.55720108805495
104.7996483075798
102.47668199321092
101.42770425830652
100.98673365953476
100.81301554545942
100.74847438840881
100.72572641047101
100.71808046003493
100.71562180188086
100.71487655393845
100.71471413538299
100.71487655388987
100.71562180170649
100.71808046444328
100.72572642464422
100.74847434131544
100.81301559055333
100.98673393787054
101.42770418566121
102.47668353796544
104.79964610418763
109.5572036985838
118.5144986698369
133.94329429718047
158.18935332323105
192.95493658012944
193.9061015581413
159.1740073681561
134.95271616166684
119.54092423360775
110.59445551681459
105.84331373623172
103.52386699357729
102.47668541023498
102.03656924443048
101.86323134542879
101.7988491091239
101.77616379825206
101.76854126132216
101.766090909504
101.76534840710427
101.765186622755
101.7653484070559
101.76609090933029
101.7685412657164
101.77616381238462
101.79884906215304
101.86323139041839
102.03656952220054
102.47668533773414
103.52386853586457
105.84331153602996
110.59445812403345
119.54091591330115
134.9527189161127
159.174039591909
193.906101221033
196.01762089757486
161.35962955370863
137.192403236679
121.81717753658133
112.89358401562217
108.15567306166926
105.84331009322537
104.79964806478804
104.36116046127957
104.18852736975157
104.12443177220966
104.10185654062568
104.09427410783653
104.09183765208236
104.09109964821288
104.09093888865699
104.09109964816476
104.09183765190961
104.09427411220683
104.1018565546876
104.1244317254566
104.18852741455046
104.36116073798327
104.79964799256061
105.8433116306044
108.15567086795073
112.89358661592242
121.817169236877
137.19240598483725
161.35966170721974
196.0176205611169
200.3519088501719
165.84540671649623
141.78748061389004
126.48507156586133
117.60618789334836
112.89358351450436
110.59445139306018
109.55720034380694
109.1216043349712
108.95019128678831
108.88657976325538
108.86418608825727
108.85666833795196
108.8542538331501
108.85352280630258
108.85336361676057
108.85352280625497
108.85425383297901
108.85666834228422
108.86418610220362
108.88657971686614
108.95019133126071
109.12160460980036
109.55720027206229
110.5944529213705
112.8935813330063
117.60619048025268
126.48506330675322
141.78748334941022
165.84543872717865
200.3519085150924
208.5286985488364
174.30689915735536
150.45225530569243
135.28337661144522
126.48507075287426
121.81717622317515
119.54091933263776
118.51450544307963
118.083687591774
117.91424605098317
117.85140009361265
117.82928773451498
117.82186829768429
117.81948656704607
117.81876579496561
117.81860888879184
117.8187657949187
117.81948656687734
117.821868301959
117.82928774828348
117.85140004779299
117.91424609493339
118.08368786353245
118.51450537212905
119.54092084542036
121.81717406298229
126.48507331584399
135.28336842605032
150.45225801783036
174.30693090094448
208.52869821641852
222.6369631369544
188.90474163581396
165.39644804010442
150.45225407716515
141.78747857416153
137.19240069867914
134.95271009200732
133.94328875873958
133.519820043955
133.353354355746
133.2916433391608
133.26994098018423
133.2626625591347
133.26032714827883
133.25962068174283
133.259466933056
133.259620681697
133.2603271481134
133.26266256332752
133.26994099369517
133.29164329417887
133.35335439891438
133.51982031102506
133.94328868900584
134.95271158017357
137.1923985727911
141.78748109776615
150.4522460147235
165.39645071258366
188.90477292211298
222.63696280919908
244.83763971248666
211.87369539941994
188.90480375554108
174.30696098552838
165.8454682835032
161.359690918412
159.17406542704086
158.18938239871414
157.77644929562234
157.61418637377605
157.55405545576895
157.53291624816316
157.52582908102448
157.52355575928502
157.5228682709608
157.52271868183928
157.52286827091598
157.523555759124
157.52582908510672
157.53291626132201
157.55405541194602
157.61418641584754
157.77644955601
158.18938233071978
159.1740668790509
161.3596888435452
165.84547074754624
174.30695311126271
188.90480636648226
211.87372597067207
244.83763939213304
276.7010976689832
244.8375830404167
222.63696518335496
208.52869946598395
200.35190902014543
196.01762060759506
193.90609794470862
192.95493640614637
192.55611809453396
192.3994237474715
192.34136435072074
192.3209560612858
192.31411479188716
192.31192060130445
192.31125711265503
192.31111275588833
192.31125711261186
192.311920601149
192.31411479582758
192.3209560739891
192.3413643084101
192.39942378809673
192.5561183460075
192.95493634047799
193.90609934740354
196.01761860296622
200.3519114011486
208.5286918562975
222.63696770688225
244.83761259017666
276.70109735930197
