# vtk DataFile Version 2.0
Unstructured Grid Example
ASCII
DATASET UNSTRUCTURED_GRID

POINTS 961 float
0.100000001 0.00499999989 0
0.0966666639 0.00499999989 0
0.0933333337 0.00499999989 0
0.0900000036 0.00499999989 0
0.086666666 0.00499999989 0
0.0833333358 0.00499999989 0
0.0799999982 0.00499999989 0
0.0766666681 0.00499999989 0
0.0733333305 0.00499999989 0
0.0700000003 0.00499999989 0
0.0666666701 0.00499999989 0
0.0633333325 0.00499999989 0
0.0599999987 0.00499999989 0
0.0566666685 0.00499999989 0
0.0533333346 0.00499999989 0
0.0500000007 0.00499999989 0
0.0466666669 0.00499999989 0
0.043333333 0.00499999989 0
0.0399999991 0.00499999989 0
0.0366666652 0.00499999989 0
0.0333333351 0.00499999989 0
0.0299999993 0.00499999989 0
0.0266666673 0.00499999989 0
0.0233333334 0.00499999989 0
0.0199999996 0.00499999989 0
0.0166666675 0.00499999989 0
0.0133333337 0.00499999989 0
0.00999999978 0.00499999989 0
0.00666666683 0.00499999989 0
0.00333333341 0.00499999989 0
0.0 0.00499999989 0
0.100000001 0.00166666671 0
0.0966666639 0.00166666671 0
0.0933333337 0.00166666671 0
0.0900000036 0.00166666671 0
0.086666666 0.00166666671 0
0.0833333358 0.00166666671 0
0.0799999982 0.00166666671 0
0.0766666681 0.00166666671 0
0.0733333305 0.00166666671 0
0.0700000003 0.00166666671 0
0.0666666701 0.00166666671 0
0.0633333325 0.00166666671 0
0.0599999987 0.00166666671 0
0.0566666685 0.00166666671 0
0.0533333346 0.00166666671 0
0.0500000007 0.00166666671 0
0.0466666669 0.00166666671 0
0.043333333 0.00166666671 0
0.0399999991 0.00166666671 0
0.0366666652 0.00166666671 0
0.0333333351 0.00166666671 0
0.0299999993 0.00166666671 0
0.0266666673 0.00166666671 0
0.0233333334 0.00166666671 0
0.0199999996 0.00166666671 0
0.0166666675 0.00166666671 0
0.0133333337 0.00166666671 0
0.00999999978 0.00166666671 0
0.00666666683 0.00166666671 0
0.00333333341 0.00166666671 0
0.0 0.00166666671 0
0.100000001 -0.00166666671 0
0.0966666639 -0.00166666671 0
0.0933333337 -0.00166666671 0
0.0900000036 -0.00166666671 0
0.086666666 -0.00166666671 0
0.0833333358 -0.00166666671 0
0.0799999982 -0.00166666671 0
0.0766666681 -0.00166666671 0
0.0733333305 -0.00166666671 0
0.0700000003 -0.00166666671 0
0.0666666701 -0.00166666671 0
0.0633333325 -0.00166666671 0
0.0599999987 -0.00166666671 0
0.0566666685 -0.00166666671 0
0.0533333346 -0.00166666671 0
0.0500000007 -0.00166666671 0
0.0466666669 -0.00166666671 0
0.043333333 -0.00166666671 0
0.0399999991 -0.00166666671 0
0.0366666652 -0.00166666671 0
0.0333333351 -0.00166666671 0
0.0299999993 -0.00166666671 0
0.0266666673 -0.00166666671 0
0.0233333334 -0.00166666671 0
0.0199999996 -0.00166666671 0
0.0166666675 -0.00166666671 0
0.0133333337 -0.00166666671 0
0.00999999978 -0.00166666671 0
0.00666666683 -0.00166666671 0
0.00333333341 -0.00166666671 0
0.0 -0.00166666671 0
0.100000001 -0.00499999989 0
0.0966666639 -0.00499999989 0
0.0933333337 -0.00499999989 0
0.0900000036 -0.00499999989 0
0.086666666 -0.00499999989 0
0.0833333358 -0.00499999989 0
0.0799999982 -0.00499999989 0
0.0766666681 -0.00499999989 0
0.0733333305 -0.00499999989 0
0.0700000003 -0.00499999989 0
0.0666666701 -0.00499999989 0
0.0633333325 -0.00499999989 0
0.0599999987 -0.00499999989 0
0.0566666685 -0.00499999989 0
0.0533333346 -0.00499999989 0
0.0500000007 -0.00499999989 0
0.0466666669 -0.00499999989 0
0.043333333 -0.00499999989 0
0.0399999991 -0.00499999989 0
0.0366666652 -0.00499999989 0
0.0333333351 -0.00499999989 0
0.0299999993 -0.00499999989 0
0.0266666673 -0.00499999989 0
0.0233333334 -0.00499999989 0
0.0199999996 -0.00499999989 0
0.0166666675 -0.00499999989 0
0.0133333337 -0.00499999989 0
0.00999999978 -0.00499999989 0
0.00666666683 -0.00499999989 0
0.00333333341 -0.00499999989 0
0.0 -0.00499999989 0
0.100000001 -0.00833333377 0
0.0966666639 -0.00833333377 0
0.0933333337 -0.00833333377 0
0.0900000036 -0.00833333377 0
0.086666666 -0.00833333377 0
0.0833333358 -0.00833333377 0
0.0799999982 -0.00833333377 0
0.0766666681 -0.00833333377 0
0.0733333305 -0.00833333377 0
0.0700000003 -0.00833333377 0
0.0666666701 -0.00833333377 0
0.0633333325 -0.00833333377 0
0.0599999987 -0.00833333377 0
0.0566666685 -0.00833333377 0
0.0533333346 -0.00833333377 0
0.0500000007 -0.00833333377 0
0.0466666669 -0.00833333377 0
0.043333333 -0.00833333377 0
0.0399999991 -0.00833333377 0
0.0366666652 -0.00833333377 0
0.0333333351 -0.00833333377 0
0.0299999993 -0.00833333377 0
0.0266666673 -0.00833333377 0
0.0233333334 -0.00833333377 0
0.0199999996 -0.00833333377 0
0.0166666675 -0.00833333377 0
0.0133333337 -0.00833333377 0
0.00999999978 -0.00833333377 0
0.00666666683 -0.00833333377 0
0.00333333341 -0.00833333377 0
0.0 -0.00833333377 0
0.100000001 -0.0116666667 0
0.0966666639 -0.0116666667 0
0.0933333337 -0.0116666667 0
0.0900000036 -0.0116666667 0
0.086666666 -0.0116666667 0
0.0833333358 -0.0116666667 0
0.0799999982 -0.0116666667 0
0.0766666681 -0.0116666667 0
0.0733333305 -0.0116666667 0
0.0700000003 -0.0116666667 0
0.0666666701 -0.0116666667 0
0.0633333325 -0.0116666667 0
0.0599999987 -0.0116666667 0
0.0566666685 -0.0116666667 0
0.0533333346 -0.0116666667 0
0.0500000007 -0.0116666667 0
0.0466666669 -0.0116666667 0
0.043333333 -0.0116666667 0
0.0399999991 -0.0116666667 0
0.0366666652 -0.0116666667 0
0.0333333351 -0.0116666667 0
0.0299999993 -0.0116666667 0
0.0266666673 -0.0116666667 0
0.0233333334 -0.0116666667 0
0.0199999996 -0.0116666667 0
0.0166666675 -0.0116666667 0
0.0133333337 -0.0116666667 0
0.00999999978 -0.0116666667 0
0.00666666683 -0.0116666667 0
0.00333333341 -0.0116666667 0
0.0 -0.0116666667 0
0.100000001 -0.0149999997 0
0.0966666639 -0.0149999997 0
0.0933333337 -0.0149999997 0
0.0900000036 -0.0149999997 0
0.086666666 -0.0149999997 0
0.0833333358 -0.0149999997 0
0.0799999982 -0.0149999997 0
0.0766666681 -0.0149999997 0
0.0733333305 -0.0149999997 0
0.0700000003 -0.0149999997 0
0.0666666701 -0.0149999997 0
0.0633333325 -0.0149999997 0
0.0599999987 -0.0149999997 0
0.0566666685 -0.0149999997 0
0.0533333346 -0.0149999997 0
0.0500000007 -0.0149999997 0
0.0466666669 -0.0149999997 0
0.043333333 -0.0149999997 0
0.0399999991 -0.0149999997 0
0.0366666652 -0.0149999997 0
0.0333333351 -0.0149999997 0
0.0299999993 -0.0149999997 0
0.0266666673 -0.0149999997 0
0.0233333334 -0.0149999997 0
0.0199999996 -0.0149999997 0
0.0166666675 -0.0149999997 0
0.0133333337 -0.0149999997 0
0.00999999978 -0.0149999997 0
0.00666666683 -0.0149999997 0
0.00333333341 -0.0149999997 0
0.0 -0.0149999997 0
0.100000001 -0.0183333326 0
0.0966666639 -0.0183333326 0
0.0933333337 -0.0183333326 0
0.0900000036 -0.0183333326 0
0.086666666 -0.0183333326 0
0.0833333358 -0.0183333326 0
0.0799999982 -0.0183333326 0
0.0766666681 -0.0183333326 0
0.0733333305 -0.0183333326 0
0.0700000003 -0.0183333326 0
0.0666666701 -0.0183333326 0
0.0633333325 -0.0183333326 0
0.0599999987 -0.0183333326 0
0.0566666685 -0.0183333326 0
0.0533333346 -0.0183333326 0
0.0500000007 -0.0183333326 0
0.0466666669 -0.0183333326 0
0.043333333 -0.0183333326 0
0.0399999991 -0.0183333326 0
0.0366666652 -0.0183333326 0
0.0333333351 -0.0183333326 0
0.0299999993 -0.0183333326 0
0.0266666673 -0.0183333326 0
0.0233333334 -0.0183333326 0
0.0199999996 -0.0183333326 0
0.0166666675 -0.0183333326 0
0.0133333337 -0.0183333326 0
0.00999999978 -0.0183333326 0
0.00666666683 -0.0183333326 0
0.00333333341 -0.0183333326 0
0.0 -0.0183333326 0
0.100000001 -0.0216666665 0
0.0966666639 -0.0216666665 0
0.0933333337 -0.0216666665 0
0.0900000036 -0.0216666665 0
0.086666666 -0.0216666665 0
0.0833333358 -0.0216666665 0
0.0799999982 -0.0216666665 0
0.0766666681 -0.0216666665 0
0.0733333305 -0.0216666665 0
0.0700000003 -0.0216666665 0
0.0666666701 -0.0216666665 0
0.0633333325 -0.0216666665 0
0.0599999987 -0.0216666665 0
0.0566666685 -0.0216666665 0
0.0533333346 -0.0216666665 0
0.0500000007 -0.0216666665 0
0.0466666669 -0.0216666665 0
0.043333333 -0.0216666665 0
0.0399999991 -0.0216666665 0
0.0366666652 -0.0216666665 0
0.0333333351 -0.0216666665 0
0.0299999993 -0.0216666665 0
0.0266666673 -0.0216666665 0
0.0233333334 -0.0216666665 0
0.0199999996 -0.0216666665 0
0.0166666675 -0.0216666665 0
0.0133333337 -0.0216666665 0
0.00999999978 -0.0216666665 0
0.00666666683 -0.0216666665 0
0.00333333341 -0.0216666665 0
0.0 -0.0216666665 0
0.100000001 -0.0250000004 0
0.0966666639 -0.0250000004 0
0.0933333337 -0.0250000004 0
0.0900000036 -0.0250000004 0
0.086666666 -0.0250000004 0
0.0833333358 -0.0250000004 0
0.0799999982 -0.0250000004 0
0.0766666681 -0.0250000004 0
0.0733333305 -0.0250000004 0
0.0700000003 -0.0250000004 0
0.0666666701 -0.0250000004 0
0.0633333325 -0.0250000004 0
0.0599999987 -0.0250000004 0
0.0566666685 -0.0250000004 0
0.0533333346 -0.0250000004 0
0.0500000007 -0.0250000004 0
0.0466666669 -0.0250000004 0
0.043333333 -0.0250000004 0
0.0399999991 -0.0250000004 0
0.0366666652 -0.0250000004 0
0.0333333351 -0.0250000004 0
0.0299999993 -0.0250000004 0
0.0266666673 -0.0250000004 0
0.0233333334 -0.0250000004 0
0.0199999996 -0.0250000004 0
0.0166666675 -0.0250000004 0
0.0133333337 -0.0250000004 0
0.00999999978 -0.0250000004 0
0.00666666683 -0.0250000004 0
0.00333333341 -0.0250000004 0
0.0 -0.0250000004 0
0.100000001 -0.0283333343 0
0.0966666639 -0.0283333343 0
0.0933333337 -0.0283333343 0
0.0900000036 -0.0283333343 0
0.086666666 -0.0283333343 0
0.0833333358 -0.0283333343 0
0.0799999982 -0.0283333343 0
0.0766666681 -0.0283333343 0
0.0733333305 -0.0283333343 0
0.0700000003 -0.0283333343 0
0.0666666701 -0.0283333343 0
0.0633333325 -0.0283333343 0
0.0599999987 -0.0283333343 0
0.0566666685 -0.0283333343 0
0.0533333346 -0.0283333343 0
0.0500000007 -0.0283333343 0
0.0466666669 -0.0283333343 0
0.043333333 -0.0283333343 0
0.0399999991 -0.0283333343 0
0.0366666652 -0.0283333343 0
0.0333333351 -0.0283333343 0
0.0299999993 -0.0283333343 0
0.0266666673 -0.0283333343 0
0.0233333334 -0.0283333343 0
0.0199999996 -0.0283333343 0
0.0166666675 -0.0283333343 0
0.0133333337 -0.0283333343 0
0.00999999978 -0.0283333343 0
0.00666666683 -0.0283333343 0
0.00333333341 -0.0283333343 0
0.0 -0.0283333343 0
[...]
POINT_DATA 961
SCALARS Temp float 1
LOOKUP_TABLE default
284.6412831886676
252.79548160276744
230.1036189907692
215.2314190546007
206.2728828434182
201.30505327499978
198.76020822427978
197.5503710950986
197.01375229591585
196.79045587922317
196.70280323700408
196.67017531695592
196.65860357500165
196.6546835818073
196.65343714659383
196.65315632183473
196.65343714651075
196.65468358152117
196.65860358180797
196.6701753376832
196.70280317137482
196.79045593866354
197.01375264185734
197.55037100574754
198.76020995401834
201.30505090624828
206.27288550332537
215.23141085486952
230.10362159907635
252.7955114501906
284.6412828918912
252.7955136350806
219.8411270633673
196.35805533064936
180.96615810300668
171.69372583120827
166.55128893237278
163.91669575796
162.6640402610833
162.10836090947
161.87710454491256
161.78631631358982
161.75251722793064
161.74052877078543
161.73646717908122
161.73517559627254
161.73488458073373
161.7351755961864
161.7364671787847
161.74052877783723
161.7525172494027
161.78631624560884
161.8771046064744
162.10836126771682
162.66404016855608
163.9166975487935
166.55128648019297
171.69372858444083
180.96614961630124
196.35805802997535
219.84115795061027
252.7955133280105
230.1036232073078
196.35802574805888
172.30774287611374
156.5410357773743
147.04054645045852
141.77017817941282
139.06922434210685
137.7846049323401
137.21455867736103
136.9772447979358
136.88404804772262
136.84934126717147
136.83702707467123
136.8328539091502
136.83152649765228
136.83122735589393
136.83152649756374
136.8328539088457
136.83702708191538
136.84934128922274
136.88404797792754
136.9772448611203
137.2145590449175
137.7846048374142
139.06922617830077
141.77017566576365
147.04054927174457
156.54102708283128
172.30774564083555
196.3580573790052
230.10362289296702
215.23141120041782
180.9661155020506
156.54102290979597
140.52463061126699
130.87070242722015
125.51327788300226
122.76660584268755
121.45968015288483
120.87947639594935
120.63782429787109
120.54288091550106
120.50750793738374
120.49495193455351
120.49069505446812
120.48934050558027
120.48903516976192
120.48934050548989
120.49069505415733
120.49495194194112
120.50750795986161
120.5428808443825
120.63782436222391
120.8794767701212
121.45968005625852
122.76660771030582
125.51327532720596
130.87070529452012
140.5246217774867
156.5410257178621
180.9661476228927
215.2314108813758
206.27288593672947
171.69369424263465
147.04054514930436
130.87071430589552
121.1213366668097
115.70899334757107
112.93303635307063
111.61159170211502
111.02466811049706
110.78009933995298
110.68396307614775
110.64812819940143
110.6354021235303
110.6310855707931
110.62971144793339
110.62940160893217
110.62971144784177
110.63108557047774
110.63540213101922
110.64812822217677
110.68396300411877
110.78009940509709
111.02466848907359
111.61159160435982
112.93303824095807
115.70899076493578
121.12133956290856
130.87070538595765
147.04054798384348
171.6937266604187
206.27288561491014
201.3050522181283
166.55125286998043
141.77017245163307
125.51328533398895
115.70898880772285
110.26453135462467
107.4711427172341
106.14089210906596
105.54981388321521
105.30340698402583
105.20650473381573
105.17036785291403
105.15752864922361
105.15317175951762
105.15178421573836
105.15147125973405
105.1517842156458
105.15317175919924
105.15752865678031
105.17036787588508
105.20650466119693
105.30340704967317
105.54981426453547
106.14089201060993
107.47114461728529
110.26452875612244
115.70899172050908
125.51327636478135
141.77017530108816
166.55128545361333
201.3050518948089
198.7602102989561
163.91666284582192
139.0692219257014
122.76661669913089
112.93303521953551
107.47114615958829
104.66810747123965
103.33287862549386
102.73940028644037
102.49190813176838
102.39454381980852
102.35822092937812
102.34531064597674
102.34092793300103
102.33953165400328
102.33921664683396
102.33953165391011
102.34092793268066
102.34531065357656
102.35822095247065
102.39454374683021
102.49190819771583
102.73940066935963
103.33287852663119
104.66810937808647
107.47114355236869
112.93303814128925
122.76660770382762
139.06922478293197
163.91669551507988
198.7602099748941
197.55037156008586
162.66400563844016
137.7846008012189
121.45968928385724
111.611588806817
106.14089378565541
103.33287684722914
101.99502122460757
101.40024630522036
101.15215368875297
101.05452756689684
101.01809680036816
101.00514435996888
101.00074600379273
100.99934433318873
100.99902804418944
100.9993443330953
101.00074600347119
101.00514436759431
101.01809682353178
101.05452749371254
101.1521537548684
101.40024668901184
101.99502112552392
103.3328787576164
106.14089117397462
111.61159173305316
121.45968027570865
137.78460366221452
162.66403834874012
197.55037123568474
197.01375306380643
162.1083265808738
137.2145548654702
120.87948586048499
111.02466554467148
105.54981589521056
102.73939884206078
101.40024664151832
100.80481565193804
100.5564113569396
100.45864581126337
100.42215612472684
100.40918008617993
100.40477276667629
100.40336794218095
100.40305089304057
100.40336794208721
100.40477276635417
100.40918009382005
100.42215614792956
100.4586457379678
100.55641142314327
100.8048160361753
101.40024654232228
102.73940075417259
105.54981328139714
111.02466847299964
120.87947684643478
137.21455772816762
162.10835930953053
197.01375273926217
196.79045622525916
161.87706977121266
136.97724053669603
120.637833308613
110.78009631148043
105.30340853154834
102.4919062196092
101.15215355693827
100.55641088807828
100.30785454961178
100.21001913383513
100.17349911665494
100.16051060626963
100.15609842876088
100.15469185620951
100.15437437950105
100.15469185611563
100.15609842843836
100.16051061391747
100.17349913987805
100.210019060483
100.307854615859
100.55641127252966
101.15215345768864
102.4919081325091
105.3034059167785
110.78009924072414
120.63782429201996
136.9772434001152
161.8771025075719
196.79045590065832
196.7028035136693
161.78628146477547
136.88404371226366
120.54288985209654
110.68395997115499
105.20650620483511
102.39454183019284
101.05452735772627
100.45864526483783
100.21001905633095
100.11215063126033
100.07561587909622
100.06262113997633
100.05820647077904
100.05679898010534
100.05648127529932
100.0567989800113
100.05820647045623
100.0626211476281
100.07561590232935
100.11215055788117
100.21001912259847
100.45864564938594
101.05452725845252
102.3945437434317
105.20650358966152
110.68396290077625
120.54288083447139
136.88404657597133
161.78631420418264
196.7028031890478
196.67017565946173
161.75248244609463
136.8493370015668
120.50751694572716
110.6481251665283
105.17036939689974
102.35821901286039
101.01809666463382
100.42215565181081
100.173499112769
100.07561595275497
100.03907443320877
100.02607675082763
100.02166087124063
100.02025292341695
100.01993510318627
100.02025292332297
100.02166087091769
100.0260767584812
100.03907445644643
100.07561587936354
100.17349917904542
100.42215603640025
101.01809656534958
102.35822092623722
105.17036678156502
110.6481280962969
120.50750792770506
136.8493398653839
161.75251518664547
196.67017533483295
196.6586039077267
161.74049397838118
136.83702279860168
120.49496093243721
110.63539907985815
105.15753018241378
102.34530871851848
101.00514421331124
100.40917960230671
100.16051059143786
100.06262120269024
100.02607673987538
100.01307774011349
100.00866130333085
100.00725313970095
100.00693526408133
100.00725313960693
100.00866130300788
100.01307774776791
100.02607676311504
100.0626211292935
100.16051065771809
100.40917998691276
101.00514411402287
102.3453106319485
105.15752756701792
110.63540200968156
120.49495191426993
136.83702566245825
161.7405267193406
196.65860358309544
196.65468390871607
161.73643238050207
136.8328496268689
120.49070404608781
110.63108252069925
105.1531732862609
102.34092599902596
101.00074585061401
100.40477227626263
100.15609840738988
100.05820652695226
100.0216608537438
100.00866129678589
100.0042446177375
100.00283635792981
100.00251845722696
100.00283635783579
100.00424461741441
100.00866130444062
100.02166087698437
100.05820645355337
100.15609847367155
100.40477266087525
101.00074575132413
102.34092791247552
105.15317067084317
110.63108545054207
120.49069502787009
136.83285249073901
161.7364651216009
196.6546835840842
196.65343747418817
161.735140798356
136.83152221609382
120.48934949796065
110.62970839858784
105.15178574324801
102.33952972078811
100.99934418077886
100.40336745253532
100.15469183561007
100.05679903705152
100.02025290669249
100.00725313392851
100.00283635870258
100.00142805986385
100.0011101488368
100.00142805976984
100.0028363583795
100.00725314158346
100.02025292993343
100.05679896365191
100.15469190189232
100.40336783715024
100.99934408148826
102.33953163424431
105.15178312782281
110.62971132843697
120.48934047972634
136.83152507996837
161.73517353949947
196.65343714955603
196.65315664982901
161.7348497832206
136.8312230747599
120.48904416258061
110.62939856002596
105.15147278769011
102.33921471406556
100.99902789222939
100.40305040384541
100.15437435935343
100.05648133269787
100.01993508691405
100.00693525876122
100.00251845845209
100.00111014928923
100.00079223550665
100.00111014919516
100.00251845812906
100.0069352664163
100.01993511015505
100.056481259298
100.15437442563578
100.40305078846089
100.99902779293885
102.33921662752327
105.15147017226316
110.62940148987671
120.48903514434251
136.83122593863538
161.73488252437406
196.65315632519676
196.65343747441617
161.73514079859228
136.83152221633662
120.48934949820844
110.62970839883916
105.15178574350182
102.33952972104348
100.99934418103521
100.40336745279231
100.15469183586747
100.05679903730905
100.0202529069501
100.00725313418619
100.00283635896025
100.00142806012154
100.00111014909447
100.0014280600275
100.00283635863717
100.00725314184113
100.02025293019098
100.05679896390929
100.15469190214968
100.40336783740733
100.99934408174472
102.3395316344997
105.15178312807663
110.62971132868839
120.48934047997416
136.83152508021115
161.73517353973563
196.65343714978394
196.65468390941123
161.73643238122216
136.83284962760885
120.49070404684277
110.63108252146489
105.15317328703378
102.34092599980353
101.00074585139437
100.40477227704469
100.15609840817278
100.05820652773572
100.02166085452748
100.00866129756959
100.00424461852133
100.00283635871367
100.00251845801074
100.0028363586196
100.00424461819833
100.00866130522434
100.02166087776806
100.05820645433678
100.15609847445448
100.40477266165733
101.00074575210459
102.34092791325304
105.153170671616
110.6310854513077
120.49069502862503
136.832852491479
161.73646512232108
196.6546835847792
196.65860390979452
161.7404939805236
136.8370228008025
120.49496093468154
110.63539908213312
105.15753018470929
102.34530872082699
101.00514421562755
100.40917960462728
100.1605105937609
100.06262120501441
100.02607674220009
100.01307774243853
100.00866130565595
100.00725314202607
100.00693526640657
100.00725314193208
100.00866130533291
100.01307775009285
100.02607676543983
100.06262113161762
100.16051066004104
100.40917998923352
101.00514411633918
102.34531063425696
105.15752756931347
110.63540201195673
120.49495191651438
136.83702566465894
161.74052672148304
196.6586035851633
196.67017566596684
161.75248245283345
136.84933700848742
120.50751695278134
110.64812517367552
105.17036940410834
102.35821902010699
101.01809667190267
100.42215565909193
100.17349912005636
100.07561596004545
100.03907444050068
100.02607675812028
100.02166087853355
100.02025293070994
100.01993511047925
100.02025293061594
100.02166087821053
100.02607676577381
100.03907446373839
100.07561588665395
100.17349918633273
100.42215604368133
101.01809657261842
102.3582209334838
105.17036678877376
110.64812810344436
120.5075079347593
136.8493398723043
161.75251519338417
196.67017534133788
196.70280356251698
161.78628151537293
136.8840437642098
120.54288990502528
110.68396002475863
105.20650625887536
102.39454188449875
101.05452741218419
100.45864531937735
100.21001911091199
100.1121506858611
100.07561593370599
100.0626211945899
100.0582065253942
100.05679903472102
100.05648132991521
100.05679903462703
100.05820652507128
100.06262120224156
100.07561595693905
100.11215061248191
100.21001917717943
100.45864570392538
101.05452731291025
102.39454379773763
105.20650364370191
110.68396295438
120.54288088739993
136.88404662791737
161.78631425477988
196.70280323789524
196.79045619238875
161.87706973716797
136.97724050175174
120.63783327301837
110.78009627544392
105.30340849522977
102.49190618312134
101.15215352035527
100.55641085144495
100.30785451295333
100.21001909716492
100.17349907997958
100.1605105695922
100.1560983920826
100.15469181953078
100.1543743428223
100.15469181943692
100.15609839176
100.16051057723999
100.17349910320272
100.2100190238129
100.30785457920058
100.55641123589625
101.15215342110562
102.49190809602132
105.30340588045995
110.78009920468777
120.63782425642543
136.97724336517058
161.87710247352655
196.79045586778784
197.01375336237064
162.10832689005912
137.21455518269434
120.87948618342384
111.02466587141711
105.54981622432969
102.73939917256395
101.40024697277707
100.80481598358342
100.55641168877085
100.45864614317875
100.4221564566783
100.40918041814597
100.4047730986479
100.40336827415453
100.40305122501458
100.40336827406071
100.40477309832565
100.409180425786
100.42215647988097
100.45864606988317
100.55641175497453
100.80481636782066
101.40024687358108
102.7394010846758
105.54981361051618
111.02466879974546
120.87947716937363
137.21455804539167
162.10835961871607
197.01375303782638
197.55037136377015
162.6640054351581
137.7846005926993
121.45968907164719
111.61158859217551
106.14089356951781
103.33287663023197
101.9950210071488
101.40024608752938
101.15215347095237
101.05452734904758
101.01809658249829
101.0051441420909
101.00074578591175
100.99934411530667
100.99902782630704
100.99934411521305
101.00074578559017
101.00514414971643
101.0180966056619
101.0545272758631
101.1521535370678
101.40024647132081
101.99502090806509
103.33287854061929
106.14089095783712
111.61159151841173
121.45968006349858
137.784603453695
162.66403814545822
197.5503710393693
198.76021232919493
163.91666494777388
139.06922408090657
122.76661889123712
112.93303743545053
107.47114838979627
104.66810970943601
103.33288086785409
102.73940253082989
102.49191037708565
102.39454606552522
102.35822317525722
102.34531289191847
102.34093017896588
102.33953389997596
102.33921889280853
102.33953389988277
102.34093017864552
102.34531289951838
102.3582231983497
102.39454599254685
102.49191044303305
102.7394029137491
103.33288076899139
104.66811161628287
107.47114578257668
112.93304035720429
122.766609895934
139.06922693813715
163.91669761703213
198.76021200513293
201.30505326515382
166.55125395382922
141.77017356250724
125.51328646329542
115.7089899486904
110.26453250243394
107.47114386877132
106.14089326249425
105.54981503753974
105.30340813874878
105.20650588870552
105.17036900786977
105.15752980420429
105.15317291450727
105.15178537073093
105.15147241472725
105.1517853706383
105.15317291418884
105.15752981176102
105.17036903084085
105.20650581608663
105.30340820439608
105.54981541886002
106.1408931640383
107.47114576882267
110.26452990393197
115.70899286147666
125.51327749408793
141.77017641196224
166.5512865374624
201.3050529418347
206.2728823390172
171.69369051863455
147.04054133309896
130.87071042723994
121.12133274898555
115.70898940699558
112.93303240023609
111.61158774313564
111.02466414864162
110.7800953768353
110.683959112508
110.64812423555753
110.6353981596104
110.63108160684627
110.62970748397765
110.62939764497423
110.62970748388595
110.6310816065308
110.63539816709921
110.64812425833267
110.683959040479
110.7800954419793
111.024664527218
111.61158764538054
112.93303428812376
115.70898682436057
121.12133564508457
130.87070150730207
147.04054416763802
171.69372293641874
206.27288201719813
215.23141777663136
180.96612230836087
156.54102988263708
140.52463769557266
130.87070958042506
125.51328507556198
122.76661305606683
121.45968737650067
120.87948362426314
120.63783152820703
120.54288814665719
120.50751516885511
120.49495916614012
120.49070228609476
120.48934773721983
120.48904240140446
120.48934773712946
120.49070228578375
120.49495917352742
120.50751519133279
120.54288807553856
120.63783159255966
120.87948399843496
121.45968727987439
122.76661492368527
125.51328251976581
130.87071244772523
140.5246288617926
156.5410326907034
180.96615442920285
215.23141745758952
230.10361659609472
196.35801890603022
172.30773586803087
156.54102865904485
147.0405392646645
141.77017095553006
139.06921709833136
137.78459767891562
137.2145514195696
136.97723753829067
136.88404078733586
136.84933400650337
136.8370198139016
136.83284664834562
136.83151923683621
136.83122009507542
136.83151923674777
136.8328466480408
136.83701982114545
136.84933402855432
136.88404071754044
136.97723760147483
137.21455178712583
137.78459758398972
139.06921893452525
141.77016844188108
147.0405420859508
156.5410199645019
172.30773863275294
196.35805053697712
230.10361628175414
252.7955386237501
219.84115292258235
196.35808181248376
180.9661849949611
171.69375297173727
166.5513162117262
163.91672310897977
162.6640676464504
162.10838831019774
161.87713195208408
161.78634372331152
161.7525446386086
161.74055618180535
161.73649459021775
161.7352030074463
161.73491199191577
161.73520300736007
161.7364945899211
161.74055618885703
161.7525446600805
161.78634365533037
161.877132013646
162.10838866844412
162.66406755392305
163.91672489981315
166.55131375954653
171.69375572497015
180.96617650825604
196.35808451180992
219.84118380982477
252.79553831668017
284.64128300984123
252.7954814177566
230.10361880142415
215.23141886248175
206.27288264967962
201.30505308039696
198.7602080292537
197.5503708998815
197.01375210061877
196.79045568389498
196.70280304166414
196.67017512161186
196.65860337965626
196.65468338646144
196.65343695124776
196.65315612648874
196.65343695116462
196.65468338617512
196.65860338646246
196.67017514233885
196.70280297603443
196.79045574333483
197.01375244656012
197.55037081053018
198.76020975899223
201.30505071164538
206.2728853095868
215.2314106627509
230.10362140973146
252.79551126517995
284.64128271306515
