# vtk DataFile Version 2.0
Unstructured Grid Example
ASCII
DATASET UNSTRUCTURED_GRID

POINTS 961 float
0.100000001 0.00499999989 0
0.0966666639 0.00499999989 0
0.0933333337 0.00499999989 0
0.0900000036 0.00499999989 0
0.086666666 0.00499999989 0
0.0833333358 0.00499999989 0
0.0799999982 0.00499999989 0
0.0766666681 0.00499999989 0
0.0733333305 0.00499999989 0
0.0700000003 0.00499999989 0
0.0666666701 0.00499999989 0
0.0633333325 0.00499999989 0
0.0599999987 0.00499999989 0
0.0566666685 0.00499999989 0
0.0533333346 0.00499999989 0
0.0500000007 0.00499999989 0
0.0466666669 0.00499999989 0
0.043333333 0.00499999989 0
0.0399999991 0.00499999989 0
0.0366666652 0.00499999989 0
0.0333333351 0.00499999989 0
0.0299999993 0.00499999989 0
0.0266666673 0.00499999989 0
0.0233333334 0.00499999989 0
0.0199999996 0.00499999989 0
0.0166666675 0.00499999989 0
0.0133333337 0.00499999989 0
0.00999999978 0.00499999989 0
0.00666666683 0.00499999989 0
0.00333333341 0.00499999989 0
0.0 0.00499999989 0
0.100000001 0.00166666671 0
0.0966666639 0.00166666671 0
0.0933333337 0.00166666671 0
0.0900000036 0.00166666671 0
0.086666666 0.00166666671 0
0.0833333358 0.00166666671 0
0.0799999982 0.00166666671 0
0.0766666681 0.00166666671 0
0.0733333305 0.00166666671 0
0.0700000003 0.00166666671 0
0.0666666701 0.00166666671 0
0.0633333325 0.00166666671 0
0.0599999987 0.00166666671 0
0.0566666685 0.00166666671 0
0.0533333346 0.00166666671 0
0.0500000007 0.00166666671 0
0.0466666669 0.00166666671 0
0.043333333 0.00166666671 0
0.0399999991 0.00166666671 0
0.0366666652 0.00166666671 0
0.0333333351 0.00166666671 0
0.0299999993 0.00166666671 0
0.0266666673 0.00166666671 0
0.0233333334 0.00166666671 0
0.0199999996 0.00166666671 0
0.0166666675 0.00166666671 0
0.0133333337 0.00166666671 0
0.00999999978 0.00166666671 0
0.00666666683 0.00166666671 0
0.00333333341 0.00166666671 0
0.0 0.00166666671 0
0.100000001 -0.00166666671 0
0.0966666639 -0.00166666671 0
0.0933333337 -0.00166666671 0
0.0900000036 -0.00166666671 0
0.086666666 -0.00166666671 0
0.0833333358 -0.00166666671 0
0.0799999982 -0.00166666671 0
0.0766666681 -0.00166666671 0
0.0733333305 -0.00166666671 0
0.0700000003 -0.00166666671 0
0.0666666701 -0.00166666671 0
0.0633333325 -0.00166666671 0
0.0599999987 -0.00166666671 0
0.0566666685 -0.00166666671 0
0.0533333346 -0.00166666671 0
0.0500000007 -0.00166666671 0
0.0466666669 -0.00166666671 0
0.043333333 -0.00166666671 0
0.0399999991 -0.00166666671 0
0.0366666652 -0.00166666671 0
0.0333333351 -0.00166666671 0
0.0299999993 -0.00166666671 0
0.0266666673 -0.00166666671 0
0.0233333334 -0.00166666671 0
0.0199999996 -0.00166666671 0
0.0166666675 -0.00166666671 0
0.0133333337 -0.00166666671 0
0.00999999978 -0.00166666671 0
0.00666666683 -0.00166666671 0
0.00333333341 -0.00166666671 0
0.0 -0.00166666671 0
0.100000001 -0.00499999989 0
0.0966666639 -0.00499999989 0
0.0933333337 -0.00499999989 0
0.0900000036 -0.00499999989 0
0.086666666 -0.00499999989 0
0.0833333358 -0.00499999989 0
0.0799999982 -0.00499999989 0
0.0766666681 -0.00499999989 0
0.0733333305 -0.00499999989 0
0.0700000003 -0.00499999989 0
0.0666666701 -0.00499999989 0
0.0633333325 -0.00499999989 0
0.0599999987 -0.00499999989 0
0.0566666685 -0.00499999989 0
0.0533333346 -0.00499999989 0
0.0500000007 -0.00499999989 0
0.0466666669 -0.00499999989 0
0.043333333 -0.00499999989 0
0.0399999991 -0.00499999989 0
0.0366666652 -0.00499999989 0
0.0333333351 -0.00499999989 0
0.0299999993 -0.00499999989 0
0.0266666673 -0.00499999989 0
0.0233333334 -0.00499999989 0
0.0199999996 -0.00499999989 0
0.0166666675 -0.00499999989 0
0.0133333337 -0.00499999989 0
0.00999999978 -0.00499999989 0
0.00666666683 -0.00499999989 0
0.00333333341 -0.00499999989 0
0.0 -0.00499999989 0
0.100000001 -0.00833333377 0
0.0966666639 -0.00833333377 0
0.0933333337 -0.00833333377 0
0.0900000036 -0.00833333377 0
0.086666666 -0.00833333377 0
0.0833333358 -0.00833333377 0
0.0799999982 -0.00833333377 0
0.0766666681 -0.00833333377 0
0.0733333305 -0.00833333377 0
0.0700000003 -0.00833333377 0
0.0666666701 -0.00833333377 0
0.0633333325 -0.00833333377 0
0.0599999987 -0.00833333377 0
0.0566666685 -0.00833333377 0
0.0533333346 -0.00833333377 0
0.0500000007 -0.00833333377 0
0.0466666669 -0.00833333377 0
0.043333333 -0.00833333377 0
0.0399999991 -0.00833333377 0
0.0366666652 -0.00833333377 0
0.0333333351 -0.00833333377 0
0.0299999993 -0.00833333377 0
0.0266666673 -0.00833333377 0
0.0233333334 -0.00833333377 0
0.0199999996 -0.00833333377 0
0.0166666675 -0.00833333377 0
0.0133333337 -0.00833333377 0
0.00999999978 -0.00833333377 0
0.00666666683 -0.00833333377 0
0.00333333341 -0.00833333377 0
0.0 -0.00833333377 0
0.100000001 -0.0116666667 0
0.0966666639 -0.0116666667 0
0.0933333337 -0.0116666667 0
0.0900000036 -0.0116666667 0
0.086666666 -0.0116666667 0
0.0833333358 -0.0116666667 0
0.0799999982 -0.0116666667 0
0.0766666681 -0.0116666667 0
0.0733333305 -0.0116666667 0
0.0700000003 -0.0116666667 0
0.0666666701 -0.0116666667 0
0.0633333325 -0.0116666667 0
0.0599999987 -0.0116666667 0
0.0566666685 -0.0116666667 0
0.0533333346 -0.0116666667 0
0.0500000007 -0.0116666667 0
0.0466666669 -0.0116666667 0
0.043333333 -0.0116666667 0
0.0399999991 -0.0116666667 0
0.0366666652 -0.0116666667 0
0.0333333351 -0.0116666667 0
0.0299999993 -0.0116666667 0
0.0266666673 -0.0116666667 0
0.0233333334 -0.0116666667 0
0.0199999996 -0.0116666667 0
0.0166666675 -0.0116666667 0
0.0133333337 -0.0116666667 0
0.00999999978 -0.0116666667 0
0.00666666683 -0.0116666667 0
0.00333333341 -0.0116666667 0
0.0 -0.0116666667 0
0.100000001 -0.0149999997 0
0.0966666639 -0.0149999997 0
0.0933333337 -0.0149999997 0
0.0900000036 -0.0149999997 0
0.086666666 -0.0149999997 0
0.0833333358 -0.0149999997 0
0.0799999982 -0.0149999997 0
0.0766666681 -0.0149999997 0
0.0733333305 -0.0149999997 0
0.0700000003 -0.0149999997 0
0.0666666701 -0.0149999997 0
0.0633333325 -0.0149999997 0
0.0599999987 -0.0149999997 0
0.0566666685 -0.0149999997 0
0.0533333346 -0.0149999997 0
0.0500000007 -0.0149999997 0
0.0466666669 -0.0149999997 0
0.043333333 -0.0149999997 0
0.0399999991 -0.0149999997 0
0.0366666652 -0.0149999997 0
0.0333333351 -0.0149999997 0
0.0299999993 -0.0149999997 0
0.0266666673 -0.0149999997 0
0.0233333334 -0.0149999997 0
0.0199999996 -0.0149999997 0
0.0166666675 -0.0149999997 0
0.0133333337 -0.0149999997 0
0.00999999978 -0.0149999997 0
0.00666666683 -0.0149999997 0
0.00333333341 -0.0149999997 0
0.0 -0.0149999997 0
0.100000001 -0.0183333326 0
0.0966666639 -0.0183333326 0
0.0933333337 -0.0183333326 0
0.0900000036 -0.0183333326 0
0.086666666 -0.0183333326 0
0.0833333358 -0.0183333326 0
0.0799999982 -0.0183333326 0
0.0766666681 -0.0183333326 0
0.0733333305 -0.0183333326 0
0.0700000003 -0.0183333326 0
0.0666666701 -0.0183333326 0
0.0633333325 -0.0183333326 0
0.0599999987 -0.0183333326 0
0.0566666685 -0.0183333326 0
0.0533333346 -0.0183333326 0
0.0500000007 -0.0183333326 0
0.0466666669 -0.0183333326 0
0.043333333 -0.0183333326 0
0.0399999991 -0.0183333326 0
0.0366666652 -0.0183333326 0
0.0333333351 -0.0183333326 0
0.0299999993 -0.0183333326 0
0.0266666673 -0.0183333326 0
0.0233333334 -0.0183333326 0
0.0199999996 -0.0183333326 0
0.0166666675 -0.0183333326 0
0.0133333337 -0.0183333326 0
0.00999999978 -0.0183333326 0
0.00666666683 -0.0183333326 0
0.00333333341 -0.0183333326 0
0.0 -0.0183333326 0
0.100000001 -0.0216666665 0
0.0966666639 -0.0216666665 0
0.0933333337 -0.0216666665 0
0.0900000036 -0.0216666665 0
0.086666666 -0.0216666665 0
0.0833333358 -0.0216666665 0
0.0799999982 -0.0216666665 0
0.0766666681 -0.0216666665 0
0.0733333305 -0.0216666665 0
0.0700000003 -0.0216666665 0
0.0666666701 -0.0216666665 0
0.0633333325 -0.0216666665 0
0.0599999987 -0.0216666665 0
0.0566666685 -0.0216666665 0
0.0533333346 -0.0216666665 0
0.0500000007 -0.0216666665 0
0.0466666669 -0.0216666665 0
0.043333333 -0.0216666665 0
0.0399999991 -0.0216666665 0
0.0366666652 -0.0216666665 0
0.0333333351 -0.0216666665 0
0.0299999993 -0.0216666665 0
0.0266666673 -0.0216666665 0
0.0233333334 -0.0216666665 0
0.0199999996 -0.0216666665 0
0.0166666675 -0.0216666665 0
0.0133333337 -0.0216666665 0
0.00999999978 -0.0216666665 0
0.00666666683 -0.0216666665 0
0.00333333341 -0.0216666665 0
0.0 -0.0216666665 0
0.100000001 -0.0250000004 0
0.0966666639 -0.0250000004 0
0.0933333337 -0.0250000004 0
0.0900000036 -0.0250000004 0
0.086666666 -0.0250000004 0
0.0833333358 -0.0250000004 0
0.0799999982 -0.0250000004 0
0.0766666681 -0.0250000004 0
0.0733333305 -0.0250000004 0
0.0700000003 -0.0250000004 0
0.0666666701 -0.0250000004 0
0.0633333325 -0.0250000004 0
0.0599999987 -0.0250000004 0
0.0566666685 -0.0250000004 0
0.0533333346 -0.0250000004 0
0.0500000007 -0.0250000004 0
0.0466666669 -0.0250000004 0
0.043333333 -0.0250000004 0
0.0399999991 -0.0250000004 0
0.0366666652 -0.0250000004 0
0.0333333351 -0.0250000004 0
0.0299999993 -0.0250000004 0
0.0266666673 -0.0250000004 0
0.0233333334 -0.0250000004 0
0.0199999996 -0.0250000004 0
0.0166666675 -0.0250000004 0
0.0133333337 -0.0250000004 0
0.00999999978 -0.0250000004 0
0.00666666683 -0.0250000004 0
0.00333333341 -0.0250000004 0
0.0 -0.0250000004 0
0.100000001 -0.0283333343 0
0.0966666639 -0.0283333343 0
0.0933333337 -0.0283333343 0
0.0900000036 -0.0283333343 0
0.086666666 -0.0283333343 0
0.0833333358 -0.0283333343 0
0.0799999982 -0.0283333343 0
0.0766666681 -0.0283333343 0
0.0733333305 -0.0283333343 0
0.0700000003 -0.0283333343 0
0.0666666701 -0.0283333343 0
0.0633333325 -0.0283333343 0
0.0599999987 -0.0283333343 0
0.0566666685 -0.0283333343 0
0.0533333346 -0.0283333343 0
0.0500000007 -0.0283333343 0
0.0466666669 -0.0283333343 0
0.043333333 -0.0283333343 0
0.0399999991 -0.0283333343 0
0.0366666652 -0.0283333343 0
0.0333333351 -0.0283333343 0
0.0299999993 -0.0283333343 0
0.0266666673 -0.0283333343 0
0.0233333334 -0.0283333343 0
0.0199999996 -0.0283333343 0
0.0166666675 -0.0283333343 0
0.0133333337 -0.0283333343 0
0.00999999978 -0.0283333343 0
0.00666666683 -0.0283333343 0
0.00333333341 -0.0283333343 0
0.0 -0.0283333343 0
[...]
POINT_DATA 961
SCALARS Temp float 1
LOOKUP_TABLE default
292.13421905089604
260.3286479985993
237.22812406796504
221.68676720332172
212.01292011545652
206.4370418386839
203.4538742107919
201.9672050668068
201.27416414120697
200.97056758275951
200.84500361271094
200.7957487671642
200.77734766170587
200.7707895398302
200.76860475293228
200.76809650031979
200.76860475278295
200.7707895393368
200.7773476727457
200.79574879905314
200.8450035162674
200.97056766556807
201.27416459707197
201.9672049501683
203.45387627990823
206.4370391085547
212.0129230361513
221.68675847518168
237.228126749788
260.3286780819354
292.1342187706551
260.3286802638546
227.40831371086824
203.49703798360093
187.40925572813615
177.39452972473237
171.6216699970711
168.53281676819026
166.99332065598807
166.275576957987
165.96112509894292
165.83105755247698
165.7800307198171
165.76096566902322
165.75417025506135
165.75190621796108
165.75137949817307
165.75190621780646
165.75417025455002
165.76096568046174
165.78003075285443
165.831057452569
165.9611251847162
166.27557743012127
166.99332053518933
168.53281891070498
171.62166717032633
177.39453274845874
187.40924669273858
203.49704075961208
227.40834484930548
260.3286799738337
237.2281283800704
203.49700822598723
178.99397877715262
162.5054350084158
152.2392041307556
146.3200038786475
143.15203791279242
141.57267870729794
140.83613995495458
140.5133601099007
140.37980910415476
140.3274006880795
140.30781398063417
140.30083076680998
140.29850360119076
140.29796210718092
140.29850360103174
140.30083076628458
140.30781399238688
140.32740072201474
140.37980900155662
140.51336019795792
140.83614043950757
141.57267858332824
143.15204011044258
146.32000097979045
152.23920723072874
162.50542574691127
178.99398162203977
203.49704013309255
237.22812808302265
221.68675880294907
187.4092122541037
162.5054214453051
145.7436910649119
135.30463630947358
129.28394104316288
126.06054460182898
124.45295270296593
123.70295439766161
123.37414410635037
123.23804290797621
123.18461223828022
123.16463558586128
123.15751062864706
123.15513540697958
123.1545826020646
123.15513540681728
123.15751062811086
123.16463559784982
123.18461227288235
123.2380428033979
123.37414419606986
123.70295489114777
124.45295257671998
126.06054683829139
129.28393809397807
135.30463946205248
145.74368164858254
162.50542433695765
187.4092446804834
221.68675850124768
212.0129234594283
177.39449806046417
152.23920298337987
135.30464907661718
124.75517534776004
118.66888706682286
115.40921256931036
113.78289376281819
113.02384363299291
112.69092108229326
112.55305688579554
112.4989100338172
112.47865666983479
112.47142990700337
112.4690197987307
112.46845872422949
112.46901979856602
112.47142990645924
112.47865668199135
112.49891006888885
112.55305677983941
112.69092117315351
113.02384413252017
113.78289363503674
115.40921483132325
118.66888408485936
124.75517853411749
135.30463956179986
152.23920590447486
177.39453081172238
212.01292315489107
206.4370405468424
171.62163333141677
146.31999778275502
129.28394886137247
118.66888198449301
112.54310689959411
109.26126868169847
107.62332741559541
106.85856720608237
106.52300750573762
106.38399412045209
106.32937294033515
106.30893347751093
106.30163724730633
106.29920302706637
106.29863618843413
106.29920302689999
106.30163724675683
106.30893348978111
106.3293729757194
106.38399401359045
106.52300759733532
106.85856770944552
107.623327286842
109.26127095942896
112.54310389771818
118.66888519103318
129.28393928834657
146.32000072104623
171.62166627104122
206.43704024071522
203.45387661006924
168.53278381580526
143.1520357219909
126.06055643979923
115.40921150821403
109.26127274884533
105.96678791736878
104.3220966561201
103.55395853552297
103.21680926380995
103.07709012403306
103.02217225171492
103.00161430057557
102.99427309115036
102.99182302490418
102.99125236089841
102.99182302473668
102.99427309059733
103.00161431291879
103.02217228729607
103.07709001661017
103.21680935585603
103.55395904117275
104.32209652678937
105.9667902041375
109.26126973567942
115.40921472598896
126.06054683476154
143.152038669618
168.5328168568679
203.4538763031199
201.96720554539903
166.99328566028663
141.57267446904035
124.45296248095211
113.78289059561243
107.62332937167395
104.32209452824642
102.67373091111534
101.90371768278925
101.56566763168496
101.42554017605123
101.37044709941188
101.34981776946611
101.34244894544311
101.33998898602607
101.33941590723983
101.33998898585791
101.34244894488789
101.34981778185347
101.37044713511037
101.42554006830032
101.5656677239878
101.90371818971897
102.67373078146278
104.32209681987985
107.623326352523
113.78289381922681
124.4529528594899
141.57267742139348
166.99331875225351
201.96720523805598
201.27416503283737
166.2755423645117
140.83613615230027
123.70296463068482
113.02384091560224
106.85856962027448
103.55395686368963
101.90371814232267
101.13272683778881
100.79419644156002
100.65384632185538
100.59865554894213
100.57798553860707
100.5706006444135
100.56813482016857
100.56756029240111
100.56813481999994
100.57060064385706
100.57798555102005
100.59865558470631
100.6538462139234
100.79419653400124
101.13272734539218
101.90371801250147
103.5539591577792
106.85856659815003
113.02384414205936
123.70295500133368
140.83613910689263
166.27557548037916
201.27416472531937
200.97056791920858
165.96108991919021
140.51335571556146
123.37415374186214
112.69091775513772
106.52300930767105
103.21680697493883
101.56566747370135
100.79419582289756
100.45542401942629
100.31495932395337
100.25971707389562
100.23902512110851
100.23163136160497
100.22916223663516
100.22858688266528
100.22916223646631
100.23163136104777
100.23902513353534
100.25971710969479
100.31495921592699
100.4554241119378
100.79419633083496
101.56566734379693
103.21680927019469
106.52300628415742
112.69092098289543
123.37414410894984
140.51335867115097
165.96112304560393
200.97056761161738
200.84500384864072
165.83102226389948
140.3798046022349
123.23805243599689
112.55305344762968
106.3839958113896
103.07708772270098
101.425539905754
100.65384559054107
100.31495921139597
100.1744387953309
100.11917088473464
100.09846772164113
100.09106932381349
100.08859843494844
100.0880226333299
100.08859843477941
100.09106932325594
100.09846773407502
100.11917092055151
100.17443868725807
100.3149593039413
100.6538460986348
101.42553977581095
103.0770900184794
106.38399278726375
112.55305667594914
123.23804280156781
140.37980755824367
165.83105539470623
200.84500354102147
200.7957491008749
165.77999553067988
140.32739628992735
123.18462187294602
112.49890670285417
106.32937473979277
103.02216995910479
101.37044693837987
100.59865492701118
100.25971707090389
100.1191709943707
100.06389096406664
100.0431823701613
100.03578166909885
100.03330988484278
100.0327338527191
100.03330988467371
100.03578166854103
100.04318238259869
100.06389099989191
100.11917088627618
100.25971716346457
100.59865543517408
101.37044680841952
103.02217225510502
106.32937171541141
112.49890993140345
123.18461223790472
140.32739924610334
165.7800286632221
200.7957487932451
200.77734798080067
165.76093046404728
140.3078095668327
123.16464520490553
112.47865332271172
106.30893526082232
103.0016119915823
101.34981759208195
100.57798490026657
100.23902510172775
100.0984678148902
100.04318235376081
100.02247126303128
100.01506947610534
100.0125972601488
100.01202111527003
100.01259725997967
100.01506947554743
100.0224712754703
100.04318238958983
100.09846770678611
100.23902519429505
100.5779854084585
101.3498174621145
103.00161428767184
106.30893223633976
112.47865655135043
123.16463556962911
140.3078125230722
165.76096359724212
200.77734767316713
200.77078984941673
165.75413503998348
140.30082634285
123.15752023744926
112.47142654937251
106.30163902006848
102.99427077148712
101.3424487573819
100.57059999536162
100.23163133151476
100.09106940635083
100.03578164197916
100.01506946538535
100.0076671944227
100.00519478175651
100.00461858476973
100.00519478158738
100.00766719386465
100.01506947782497
100.0357816778098
100.09106929824263
100.2316314240848
100.5706005035653
101.34244862741163
102.99427306761083
106.30163599554781
112.47142977804447
123.15751060208702
140.30082929911248
165.75416817341255
200.77078954178205
200.76860506368118
165.75187100400396
140.29849917845658
123.15514501707364
112.46901644236898
106.29920480112985
102.99182070653023
101.33998879927026
100.56813417242061
100.22916220785564
100.08859851879889
100.03330985903506
100.01259725074114
100.00519478306929
100.0027222888913
100.00214607004315
100.00272228872217
100.00519478251121
100.01259726318116
100.03330989486636
100.08859841068919
100.22916230042681
100.56813468062859
101.33998866929896
102.99182300266614
106.29920177659581
112.46901967105227
123.15513538168194
140.2985021347267
165.75190413751133
200.76860475604616
200.76809681178855
165.75134428494215
140.29795768521072
123.1545922129482
112.46845536865924
106.29863796330187
102.99125004332927
101.33941572129504
100.56755964546501
100.22858685470013
100.08802271799574
100.03273382772666
100.01202110667788
100.00461858689806
100.0021460708588
100.0015698461014
100.00214607068962
100.00461858634011
100.01202111911797
100.03273386355815
100.08802260988577
100.22858694727148
100.56756015367408
101.33941559132359
102.99125233946813
106.29863493876468
112.46845859734536
123.15458257754953
140.29796064148272
165.75137741846797
200.7680965041533
200.76860506408343
165.75187100442074
140.29849917888504
123.15514501751096
112.46901644281273
106.29920480157804
102.99182070698139
101.33998879972329
100.56813417287471
100.22916220831036
100.08859851925392
100.03330985949029
100.01259725119645
100.00519478352456
100.00272228934664
100.00214607049845
100.00272228917746
100.00519478296656
100.01259726363652
100.0333098953215
100.08859841114418
100.22916230088143
100.56813468108273
101.33998866975197
102.9918230031173
106.299201777044
112.46901967149614
123.15513538211938
140.29850213515513
165.7519041379282
200.7686047564483
200.7707898505975
165.75413504120698
140.30082634410735
123.15752023873226
112.47142655067407
106.30163902138263
102.9942707728095
101.34244875870935
100.57059999669214
100.23163133284692
100.09106940768385
100.03578164331276
100.01506946671893
100.0076671957565
100.00519478309037
100.00461858610348
100.00519478292124
100.0076671951985
100.01506947915865
100.03578167914334
100.09106929957572
100.23163142541691
100.5706005048958
101.3424486287392
102.99427306893324
106.30163599686196
112.47142977934604
123.15751060336996
140.3008293003699
165.75416817463602
200.77078954296275
200.77734798414173
165.76093046750896
140.3078095703894
123.16464520853346
112.47865332639034
106.30893526453522
103.00161199531713
101.34981759583019
100.5779849040223
100.23902510548774
100.09846781865237
100.04318235752393
100.02247126679498
100.01506947986914
100.0125972639127
100.01202111903403
100.0125972637437
100.01506947931122
100.02247127923383
100.04318239335294
100.09846771054812
100.23902519805495
100.5779854122144
101.34981746586273
103.00161429140667
106.30893224005271
112.47865655502932
123.16463557325717
140.30781252662882
165.76096360070383
200.7773476765082
200.79574911085945
165.77999554102396
140.3273963005525
123.18462188377961
112.49890671383433
106.32937475087057
103.02216997024414
101.37044694955576
100.59865493820759
100.25971708211121
100.11917100558348
100.06389097528205
100.0431823813779
100.03578168031595
100.03330989606008
100.03273386393649
100.033309895891
100.03578167975813
100.04318239381527
100.06389101110722
100.1191708974889
100.25971717467186
100.59865544637056
101.37044681959551
103.02217226624435
106.32937172648944
112.49890994238383
123.18461224873835
140.32739925672834
165.78002867356602
200.79574880322937
200.84500392006234
165.83102233788588
140.3798046782113
123.23805251343612
112.55305352608565
106.38399589051252
103.07708780223673
101.42553998553058
100.65384567045008
100.31495929137382
100.17443887534259
100.11917096476215
100.09846780167555
100.0910694038509
100.08859851498687
100.08802271336864
100.08859851481783
100.09106940329319
100.09846781410938
100.11917100057897
100.17443876726976
100.31495938391912
100.65384617854374
101.42553985558735
103.07709009801516
106.38399286638693
112.55305675440516
123.23804287900714
140.37980763422001
165.83105546869237
200.84500361244272
200.9705678728445
165.96108987116517
140.51335566625434
123.374153691619
112.69091770425004
106.52300925636533
103.21680692337746
101.56566742199303
100.79419577110954
100.45542396759751
100.31495927210483
100.25971702203813
100.23902506924723
100.23163130974211
100.22916218477157
100.22858683080152
100.22916218460266
100.23163130918479
100.23902508167397
100.25971705783734
100.31495916407853
100.45542406010905
100.79419627904694
101.56566729208866
103.21680921863346
106.52300623285177
112.69092093200796
123.37414405870682
140.51335862184365
165.9611229975784
200.97056756525348
201.27416542698498
166.2755427727272
140.83613657125818
123.70296505737245
113.02384134751985
106.8585700555152
103.55395730091244
101.9037185806558
101.13272727670676
100.79419688076818
100.65384676119952
100.59865598834665
100.57798597803698
100.5706010838535
100.56813525961225
100.5675607318457
100.56813525944362
100.57060108329699
100.57798599044989
100.59865602411082
100.65384665326752
100.79419697320947
101.13272778431022
101.90371845083467
103.55395959500203
106.85856703339071
113.0238445739771
123.70295542802154
140.8361395258504
166.27557588859486
201.27416511946694
201.96720529510054
166.99328540107365
141.5726742030589
124.4529622101372
113.78289032155789
107.62332909558398
104.32209425095783
102.67373063316484
101.90371740449514
101.56566735322308
101.42553989751211
101.37044682083896
101.34981749087918
101.34244866685074
101.33998870743169
101.33941562864496
101.33998870726339
101.34244866629551
101.34981750326666
101.37044685653734
101.42553978976103
101.56566744552602
101.90371791142493
102.67373050351225
104.32209654259134
107.6233260764331
113.78289354517236
124.45295258867502
141.57267715541212
166.99331849304065
201.9672049877578
203.4538790407922
168.53278633275912
143.15203830372968
126.06055906715265
115.4092141656042
109.26127542471856
105.96679060387433
104.32209934835076
103.55396123064553
103.2168119603064
103.07709282114536
103.02217494908862
103.00161699805463
102.99427578866974
102.9918257224379
102.99125505843556
102.99182572227038
102.99427578811671
103.00161701039782
103.02217498466979
103.07709271372251
103.21681205235254
103.55396173629524
104.32209921902009
105.96679289064303
109.26127241155268
115.40921738337919
126.06054946211505
143.15204125135688
168.53281937382192
203.45387873384297
206.4370417315658
171.621634558016
146.31999904050957
129.283950140777
118.66888327792388
112.54310820149345
109.26126998836713
107.62332872477432
106.85856851649955
106.5230088167293
106.38399543169508
106.32937425168214
106.30893478889912
106.30163855871001
106.29920433847529
106.29863749984436
106.29920433830885
106.3016385581604
106.30893480116931
106.32937428706649
106.38399532483339
106.52300890832686
106.85856901986271
107.62332859602095
109.26127226609779
112.54310519961777
118.66888648446412
129.28394056775127
146.32000197880072
171.62166749764071
206.43704142543888
212.0129194860303
177.39449394684524
152.23919876588567
135.30464478735573
124.75517101233663
118.66888270376285
115.40920819083267
113.7828893763083
113.02383924256372
112.6909166900664
112.5530524927906
112.49890564049322
112.47865227638648
112.4714255135089
112.46901540522026
112.46845433071515
112.46901540505549
112.4714255129647
112.4786522885429
112.49890567556479
112.55305238683435
112.69091678092651
113.02383974209081
113.78288924852693
115.40921045284584
118.66887972179957
124.75517419869436
135.30463527253835
152.23920168698064
177.39452669810353
212.01291918149337
221.68676578316692
187.40921948000178
162.50542885190643
145.74369859516818
135.30464391832933
129.28394869843297
126.06055228260223
124.45296039681276
123.70296209778272
123.37415180930151
123.23805061213177
123.18461994292187
123.16464329068947
123.15751833354341
123.15514311189901
123.15459030698946
123.15514311173662
123.15751833300692
123.16464330267775
123.1846199775238
123.23805050755348
123.37415189902066
123.70296259126873
124.45296027056685
126.06055451906471
129.28394574924837
135.30464707090837
145.74368917883902
162.5054317435591
187.4092519063814
221.68676548146556
237.22812154831
203.49700115421115
178.99397152971247
162.50542764157132
152.23919668864153
146.3199963925139
143.1520304027303
141.57267118510953
140.83613242701563
140.51335257939903
140.37980157257542
140.32739315607023
140.30780644846186
140.30082323457864
140.29849606893936
140.29795457492486
140.29849606878037
140.30082323405296
140.30780646021432
140.32739319000532
140.37980146997694
140.51335266745602
140.83613291156854
141.57267106113974
143.15203260038064
146.31999349365697
152.23919978861505
162.50541838006706
178.99397437459984
203.49703306131696
237.22812125126254
260.3287054466144
227.40833977684474
203.497064693003
187.40928287218657
177.3945571407007
171.62169757068745
168.53284442669505
166.9933483570877
166.27560467908373
165.9611528288617
165.83108528607065
165.7800584548621
165.7609934046141
165.7541979908481
165.7519339538134
165.75140723404058
165.75193395365855
165.75419799033673
165.76099341605266
165.78005848789923
165.83108518616254
165.961152914635
166.27560515121752
166.99334823628874
168.5328465692097
171.62169474394273
177.39456016442733
187.4092738367895
203.4970674690144
227.4083709152814
260.3287051565937
292.13421888678204
260.3286478287693
237.22812389404945
221.68676702671894
212.01291993722919
206.43704165955324
203.45387403119804
201.96720488699268
201.27416396129564
200.970567402808
200.84500343274365
200.79574858719107
200.77734748173077
200.77078935985438
200.76860457295612
200.76809632034366
200.76860457280685
200.77078935936086
200.77734749277042
200.79574861907977
200.8450033362998
200.97056748561613
201.2741644171604
201.967204770354
203.4538761003141
206.43703892942398
212.01292285792417
221.68675829857912
237.22812657587264
260.3286779121056
292.13421860654137
