# vtk DataFile Version 2.0
Unstructured Grid Example
ASCII
DATASET UNSTRUCTURED_GRID

POINTS 961 float
0.100000001 0.00499999989 0
0.0966666639 0.00499999989 0
0.0933333337 0.00499999989 0
0.0900000036 0.00499999989 0
0.086666666 0.00499999989 0
0.0833333358 0.00499999989 0
0.0799999982 0.00499999989 0
0.0766666681 0.00499999989 0
0.0733333305 0.00499999989 0
0.0700000003 0.00499999989 0
0.0666666701 0.00499999989 0
0.0633333325 0.00499999989 0
0.0599999987 0.00499999989 0
0.0566666685 0.00499999989 0
0.0533333346 0.00499999989 0
0.0500000007 0.00499999989 0
0.0466666669 0.00499999989 0
0.043333333 0.00499999989 0
0.0399999991 0.00499999989 0
0.0366666652 0.00499999989 0
0.0333333351 0.00499999989 0
0.0299999993 0.00499999989 0
0.0266666673 0.00499999989 0
0.0233333334 0.00499999989 0
0.0199999996 0.00499999989 0
0.0166666675 0.00499999989 0
0.0133333337 0.00499999989 0
0.00999999978 0.00499999989 0
0.00666666683 0.00499999989 0
0.00333333341 0.00499999989 0
0.0 0.00499999989 0
0.100000001 0.00166666671 0
0.0966666639 0.00166666671 0
0.0933333337 0.00166666671 0
0.0900000036 0.00166666671 0
0.086666666 0.00166666671 0
0.0833333358 0.00166666671 0
0.0799999982 0.00166666671 0
0.0766666681 0.00166666671 0
0.0733333305 0.00166666671 0
0.0700000003 0.00166666671 0
0.0666666701 0.00166666671 0
0.0633333325 0.00166666671 0
0.0599999987 0.00166666671 0
0.0566666685 0.00166666671 0
0.0533333346 0.00166666671 0
0.0500000007 0.00166666671 0
0.0466666669 0.00166666671 0
0.043333333 0.00166666671 0
0.0399999991 0.00166666671 0
0.0366666652 0.00166666671 0
0.0333333351 0.00166666671 0
0.0299999993 0.00166666671 0
0.0266666673 0.00166666671 0
0.0233333334 0.00166666671 0
0.0199999996 0.00166666671 0
0.0166666675 0.00166666671 0
0.0133333337 0.00166666671 0
0.00999999978 0.00166666671 0
0.00666666683 0.00166666671 0
0.00333333341 0.00166666671 0
0.0 0.00166666671 0
0.100000001 -0.00166666671 0
0.0966666639 -0.00166666671 0
0.0933333337 -0.00166666671 0
0.0900000036 -0.00166666671 0
0.086666666 -0.00166666671 0
0.0833333358 -0.00166666671 0
0.0799999982 -0.00166666671 0
0.0766666681 -0.00166666671 0
0.0733333305 -0.00166666671 0
0.0700000003 -0.00166666671 0
0.0666666701 -0.00166666671 0
0.0633333325 -0.00166666671 0
0.0599999987 -0.00166666671 0
0.0566666685 -0.00166666671 0
0.0533333346 -0.00166666671 0
0.0500000007 -0.00166666671 0
0.0466666669 -0.00166666671 0
0.043333333 -0.00166666671 0
0.0399999991 -0.00166666671 0
0.0366666652 -0.00166666671 0
0.0333333351 -0.00166666671 0
0.0299999993 -0.00166666671 0
0.0266666673 -0.00166666671 0
0.0233333334 -0.00166666671 0
0.0199999996 -0.00166666671 0
0.0166666675 -0.00166666671 0
0.0133333337 -0.00166666671 0
0.00999999978 -0.00166666671 0
0.00666666683 -0.00166666671 0
0.00333333341 -0.00166666671 0
0.0 -0.00166666671 0
0.100000001 -0.00499999989 0
0.0966666639 -0.00499999989 0
0.0933333337 -0.00499999989 0
0.0900000036 -0.00499999989 0
0.086666666 -0.00499999989 0
0.0833333358 -0.00499999989 0
0.0799999982 -0.00499999989 0
0.0766666681 -0.00499999989 0
0.0733333305 -0.00499999989 0
0.0700000003 -0.00499999989 0
0.0666666701 -0.00499999989 0
0.0633333325 -0.00499999989 0
0.0599999987 -0.00499999989 0
0.0566666685 -0.00499999989 0
0.0533333346 -0.00499999989 0
0.0500000007 -0.00499999989 0
0.0466666669 -0.00499999989 0
0.043333333 -0.00499999989 0
0.0399999991 -0.00499999989 0
0.0366666652 -0.00499999989 0
0.0333333351 -0.00499999989 0
0.0299999993 -0.00499999989 0
0.0266666673 -0.00499999989 0
0.0233333334 -0.00499999989 0
0.0199999996 -0.00499999989 0
0.0166666675 -0.00499999989 0
0.0133333337 -0.00499999989 0
0.00999999978 -0.00499999989 0
0.00666666683 -0.00499999989 0
0.00333333341 -0.00499999989 0
0.0 -0.00499999989 0
0.100000001 -0.00833333377 0
0.0966666639 -0.00833333377 0
0.0933333337 -0.00833333377 0
0.0900000036 -0.00833333377 0
0.086666666 -0.00833333377 0
0.0833333358 -0.00833333377 0
0.0799999982 -0.00833333377 0
0.0766666681 -0.00833333377 0
0.0733333305 -0.00833333377 0
0.0700000003 -0.00833333377 0
0.0666666701 -0.00833333377 0
0.0633333325 -0.00833333377 0
0.0599999987 -0.00833333377 0
0.0566666685 -0.00833333377 0
0.0533333346 -0.00833333377 0
0.0500000007 -0.00833333377 0
0.0466666669 -0.00833333377 0
0.043333333 -0.00833333377 0
0.0399999991 -0.00833333377 0
0.0366666652 -0.00833333377 0
0.0333333351 -0.00833333377 0
0.0299999993 -0.00833333377 0
0.0266666673 -0.00833333377 0
0.0233333334 -0.00833333377 0
0.0199999996 -0.00833333377 0
0.0166666675 -0.00833333377 0
0.0133333337 -0.00833333377 0
0.00999999978 -0.00833333377 0
0.00666666683 -0.00833333377 0
0.00333333341 -0.00833333377 0
0.0 -0.00833333377 0
0.100000001 -0.0116666667 0
0.0966666639 -0.0116666667 0
0.0933333337 -0.0116666667 0
0.0900000036 -0.0116666667 0
0.086666666 -0.0116666667 0
0.0833333358 -0.0116666667 0
0.0799999982 -0.0116666667 0
0.0766666681 -0.0116666667 0
0.0733333305 -0.0116666667 0
0.0700000003 -0.0116666667 0
0.0666666701 -0.0116666667 0
0.0633333325 -0.0116666667 0
0.0599999987 -0.0116666667 0
0.0566666685 -0.0116666667 0
0.0533333346 -0.0116666667 0
0.0500000007 -0.0116666667 0
0.0466666669 -0.0116666667 0
0.043333333 -0.0116666667 0
0.0399999991 -0.0116666667 0
0.0366666652 -0.0116666667 0
0.0333333351 -0.0116666667 0
0.0299999993 -0.0116666667 0
0.0266666673 -0.0116666667 0
0.0233333334 -0.0116666667 0
0.0199999996 -0.0116666667 0
0.0166666675 -0.0116666667 0
0.0133333337 -0.0116666667 0
0.00999999978 -0.0116666667 0
0.00666666683 -0.0116666667 0
0.00333333341 -0.0116666667 0
0.0 -0.0116666667 0
0.100000001 -0.0149999997 0
0.0966666639 -0.0149999997 0
0.0933333337 -0.0149999997 0
0.0900000036 -0.0149999997 0
0.086666666 -0.0149999997 0
0.0833333358 -0.0149999997 0
0.0799999982 -0.0149999997 0
0.0766666681 -0.0149999997 0
0.0733333305 -0.0149999997 0
0.0700000003 -0.0149999997 0
0.0666666701 -0.0149999997 0
0.0633333325 -0.0149999997 0
0.0599999987 -0.0149999997 0
0.0566666685 -0.0149999997 0
0.0533333346 -0.0149999997 0
0.0500000007 -0.0149999997 0
0.0466666669 -0.0149999997 0
0.043333333 -0.0149999997 0
0.0399999991 -0.0149999997 0
0.0366666652 -0.0149999997 0
0.0333333351 -0.0149999997 0
0.0299999993 -0.0149999997 0
0.0266666673 -0.0149999997 0
0.0233333334 -0.0149999997 0
0.0199999996 -0.0149999997 0
0.0166666675 -0.0149999997 0
0.0133333337 -0.0149999997 0
0.00999999978 -0.0149999997 0
0.00666666683 -0.0149999997 0
0.00333333341 -0.0149999997 0
0.0 -0.0149999997 0
0.100000001 -0.0183333326 0
0.0966666639 -0.0183333326 0
0.0933333337 -0.0183333326 0
0.0900000036 -0.0183333326 0
0.086666666 -0.0183333326 0
0.0833333358 -0.0183333326 0
0.0799999982 -0.0183333326 0
0.0766666681 -0.0183333326 0
0.0733333305 -0.0183333326 0
0.0700000003 -0.0183333326 0
0.0666666701 -0.0183333326 0
0.0633333325 -0.0183333326 0
0.0599999987 -0.0183333326 0
0.0566666685 -0.0183333326 0
0.0533333346 -0.0183333326 0
0.0500000007 -0.0183333326 0
0.0466666669 -0.0183333326 0
0.043333333 -0.0183333326 0
0.0399999991 -0.0183333326 0
0.0366666652 -0.0183333326 0
0.0333333351 -0.0183333326 0
0.0299999993 -0.0183333326 0
0.0266666673 -0.0183333326 0
0.0233333334 -0.0183333326 0
0.0199999996 -0.0183333326 0
0.0166666675 -0.0183333326 0
0.0133333337 -0.0183333326 0
0.00999999978 -0.0183333326 0
0.00666666683 -0.0183333326 0
0.00333333341 -0.0183333326 0
0.0 -0.0183333326 0
0.100000001 -0.0216666665 0
0.0966666639 -0.0216666665 0
0.0933333337 -0.0216666665 0
0.0900000036 -0.0216666665 0
0.086666666 -0.0216666665 0
0.0833333358 -0.0216666665 0
0.0799999982 -0.0216666665 0
0.0766666681 -0.0216666665 0
0.0733333305 -0.0216666665 0
0.0700000003 -0.0216666665 0
0.0666666701 -0.0216666665 0
0.0633333325 -0.0216666665 0
0.0599999987 -0.0216666665 0
0.0566666685 -0.0216666665 0
0.0533333346 -0.0216666665 0
0.0500000007 -0.0216666665 0
0.0466666669 -0.0216666665 0
0.043333333 -0.0216666665 0
0.0399999991 -0.0216666665 0
0.0366666652 -0.0216666665 0
0.0333333351 -0.0216666665 0
0.0299999993 -0.0216666665 0
0.0266666673 -0.0216666665 0
0.0233333334 -0.0216666665 0
0.0199999996 -0.0216666665 0
0.0166666675 -0.0216666665 0
0.0133333337 -0.0216666665 0
0.00999999978 -0.0216666665 0
0.00666666683 -0.0216666665 0
0.00333333341 -0.0216666665 0
0.0 -0.0216666665 0
0.100000001 -0.0250000004 0
0.0966666639 -0.0250000004 0
0.0933333337 -0.0250000004 0
0.0900000036 -0.0250000004 0
0.086666666 -0.0250000004 0
0.0833333358 -0.0250000004 0
0.0799999982 -0.0250000004 0
0.0766666681 -0.0250000004 0
0.0733333305 -0.0250000004 0
0.0700000003 -0.0250000004 0
0.0666666701 -0.0250000004 0
0.0633333325 -0.0250000004 0
0.0599999987 -0.0250000004 0
0.0566666685 -0.0250000004 0
0.0533333346 -0.0250000004 0
0.0500000007 -0.0250000004 0
0.0466666669 -0.0250000004 0
0.043333333 -0.0250000004 0
0.0399999991 -0.0250000004 0
0.0366666652 -0.0250000004 0
0.0333333351 -0.0250000004 0
0.0299999993 -0.0250000004 0
0.0266666673 -0.0250000004 0
0.0233333334 -0.0250000004 0
0.0199999996 -0.0250000004 0
0.0166666675 -0.0250000004 0
0.0133333337 -0.0250000004 0
0.00999999978 -0.0250000004 0
0.00666666683 -0.0250000004 0
0.00333333341 -0.0250000004 0
0.0 -0.0250000004 0
0.100000001 -0.0283333343 0
0.0966666639 -0.0283333343 0
0.0933333337 -0.0283333343 0
0.0900000036 -0.0283333343 0
0.086666666 -0.0283333343 0
0.0833333358 -0.0283333343 0
0.0799999982 -0.0283333343 0
0.0766666681 -0.0283333343 0
0.0733333305 -0.0283333343 0
0.0700000003 -0.0283333343 0
0.0666666701 -0.0283333343 0
0.0633333325 -0.0283333343 0
0.0599999987 -0.0283333343 0
0.0566666685 -0.0283333343 0
0.0533333346 -0.0283333343 0
0.0500000007 -0.0283333343 0
0.0466666669 -0.0283333343 0
0.043333333 -0.0283333343 0
0.0399999991 -0.0283333343 0
0.0366666652 -0.0283333343 0
0.0333333351 -0.0283333343 0
0.0299999993 -0.0283333343 0
0.0266666673 -0.0283333343 0
0.0233333334 -0.0283333343 0
0.0199999996 -0.0283333343 0
0.0166666675 -0.0283333343 0
0.0133333337 -0.0283333343 0
0.00999999978 -0.0283333343 0
0.00666666683 -0.0283333343 0
0.00333333341 -0.0283333343 0
0.0 -0.0283333343 0
[...]
POINT_DATA 961
SCALARS Temp float 1
LOOKUP_TABLE default
213.1527867597104
182.73181848074137
167.48503831939215
161.26749440284553
159.1174192849601
158.4602340898058
158.2768581580674
158.22908052816607
158.2172732307587
158.21447468182603
158.21383336719808
158.21369042441617
158.21365929470824
158.2136526494504
158.213651265533
158.2136510357036
158.21365126553292
158.21365264945013
158.21365929472375
158.2136904244931
158.21383336680907
158.2144746824248
158.21727323697166
158.22908052612945
158.2768582563025
158.46023386293223
159.1174197833875
161.26749187643355
167.48503981015284
182.73184299828517
213.15278713314527
182.7318441218378
151.36684070657063
135.63805301729826
129.21970486065246
126.99878724285851
126.31957803615614
126.12997003220151
126.08054973976908
126.06833253162947
126.06543602270568
126.0647721001123
126.06462408711151
126.06459184723455
126.06458496385045
126.0645835301327
126.06458329200768
126.06458353013264
126.06458496385007
126.06459184725068
126.06462408719112
126.06477209970947
126.06543602332519
126.06833253805891
126.08054973766215
126.12997013378917
126.31957780163434
126.99878775781806
129.2197022518544
135.6380545555592
151.36686599077896
182.73184450421695
167.48504007166773
135.63802795911047
119.64983911967086
113.11649192228428
110.85252595583833
110.1592440756084
109.96548772988177
109.9149369439312
109.90242977273097
109.89946235752237
109.89878174836275
109.89862992986585
109.89859684451017
109.89858977744122
109.89858830487923
109.8985880602314
109.89858830487913
109.8985897774409
109.89859684452675
109.89862992994756
109.89878174794971
109.89946235815731
109.90242977931447
109.9149369417751
109.96548783372839
110.15924383611258
110.85252648104691
113.11648926489634
119.64984068408197
135.6380536433183
167.48504045511774
161.26749144765563
129.21967476050986
113.1164869575967
106.52801131739928
104.24169203612891
103.5405632188087
103.34435307638385
103.29310067744784
103.28040632435243
103.27739161895302
103.27669957156698
103.27654508288916
103.27651139223629
103.27650419134126
103.27650269004796
103.27650244052332
103.27650269004792
103.27650419134096
103.27651139225324
103.27654508297216
103.27669957114676
103.27739161959826
103.28040633103652
103.29310067526046
103.34435318159063
103.54056297646474
104.24169256681573
106.52800863572726
113.11648853392727
129.2197006156678
161.2674918301847
159.11741937098526
126.99876021705359
110.85252418359177
104.24169527560434
101.94546596223525
101.24054407130497
101.04305442026929
100.99141234781486
100.97860848953289
100.97556490093528
100.97486561096979
100.97470937908672
100.97467528278038
100.97466799014177
100.97466646876495
100.9746662157838
100.97466646876495
100.97466799014134
100.97467528279748
100.97470937917078
100.97486561054511
100.97556490158681
100.97860849627679
100.99141234560939
101.0430545262026
101.2405438275337
101.94546649543959
104.2416925835894
110.8525257645069
126.99878613402329
159.11741975288456
158.460233522722
126.31955031439854
110.15924161240048
103.54056576602738
101.24054337074259
100.53402998991483
100.3359545407283
100.28411988155051
100.27125829992316
100.26819864348906
100.26749513804185
100.26733785193508
100.26730350213676
100.26729615052471
100.26729461592268
100.26729436062628
100.26729461592254
100.26729615052429
100.2673035021539
100.2673378520197
100.2674951376145
100.26819864414416
100.27125830669905
100.28411987933576
100.33595464700423
100.53402974551739
101.24054390494865
103.54056307019607
110.15924319484918
126.31957625100195
158.46023390438447
158.2768578171854
126.12994253822859
109.96548550485589
103.34435586668742
101.04305396272038
100.33595478494836
100.13764332257385
100.08572416590833
100.0728352785259
100.06976751653258
100.06906176540632
100.06890389105092
100.06886939408304
100.06886200704236
100.06886046426034
100.06886020750254
100.06886046426031
100.06886200704193
100.06886939410033
100.06890389113582
100.0690617649775
100.06976751718956
100.07283528531747
100.08572416368935
100.13764342899283
100.33595454030885
101.04305449727724
103.34435316960831
109.9654870877651
126.12996848048962
158.27685819877843
158.2290800927205
126.08052214637885
109.91493461873733
103.29310336683892
100.99141178817548
100.28412002351762
100.08572406341843
100.03377190393233
100.0208714396342
100.01779998059403
100.01709313828813
100.01693496213403
100.01690038604774
100.01689297917626
100.01689143165581
100.01689117403085
100.01689143165581
100.01689297917581
100.01690038606503
100.01693496221921
100.0170931378587
100.01779998125197
100.02087144643248
100.03377190171157
100.08572416989047
100.28411977879432
100.99141232284268
103.29310066938973
109.91493620177386
126.08054809015438
158.22908047429547
158.21727279801502
126.06830494062585
109.9024274503526
103.28040901676006
100.97860793280763
100.27125844487156
100.07283517899421
100.02087144261368
100.00796656593272
100.00489358296666
100.00418625805365
100.00402793991809
100.00399332455731
100.0039859073724
100.00398435728796
100.00398409918077
100.00398435728793
100.00398590737213
100.0039933245747
100.00402794000331
100.00418625762374
100.00489358362485
100.00796657273366
100.02087144039217
100.07283528548389
100.27125820012209
100.97860846750667
103.28040631920906
109.90242903342231
126.06833088478412
158.21727317958596
158.2144742414199
126.06540842367335
109.8994600270116
103.27739430314288
100.97556433588338
100.26819878008482
100.06976740861903
100.01779997518854
100.00489357457757
100.00182002215496
100.00111250294064
100.00095412364266
100.00091949031793
100.00091206816101
100.00091051678372
100.00091025842575
100.00091051678368
100.00091206816069
100.00091949033525
100.00095412372792
100.00111250251065
100.00182002281325
100.00489358137942
100.01779997296677
100.06976751511414
100.2681985353276
100.97556487059097
103.27739160556543
109.89946161008943
126.06543436792442
158.2144746229899
158.21383292630352
126.06474450055136
109.8987794173305
103.27670225523609
100.97486504538296
100.26749527410296
100.06906165695369
100.0170931323441
100.00418624912544
100.00111250240178
100.00040491175432
100.00024650831885
100.00021186743022
100.00020444305501
100.00020289107155
100.00020263259177
100.00020289107138
100.00020444305461
100.00021186744752
100.0002465084041
100.00040491132424
100.00111250306013
100.00418625592765
100.01709313012228
100.0690617634503
100.26749502934379
100.97486558009281
103.27669955765225
109.89878100041038
126.06477044482385
158.2138333078735
158.21368998387882
126.06459648791518
109.89862759921228
103.27654776694543
100.97470881388936
100.26733798838892
100.06890378299163
100.01693495658454
100.0040279313846
100.00095412349876
100.0002465087139
100.00008809652483
100.00005345270196
100.00004602741147
100.0000444751638
100.00004421662914
100.00004447516372
100.00004602741099
100.00005345271927
100.00008809661006
100.0002465082838
100.00095412415718
100.00402793818695
100.0169349543626
100.06890388948865
100.26733774362917
100.97470934859975
103.2765450693601
109.8986291822926
126.06462243219254
158.21369036544874
158.2136588541274
126.06456424799205
109.89859451381028
103.27651407624604
100.97467471753525
100.26730363854277
100.06886928597564
100.01690038045001
100.00399331597566
100.0009194901259
100.00021186777704
100.00005345265373
100.0000188077792
100.00001138213908
100.00000982978463
100.00000957122685
100.00000982978452
100.00001138213864
100.00001880779655
100.00005345273897
100.0002118673469
100.00091949078424
100.00399332277787
100.01690037822812
100.06886939247283
100.26730339378292
100.97467525224575
103.27651137866035
109.89859609689067
126.06459019227051
158.21365923569718
158.213652208857
126.06455736459476
109.89858744672796
103.27650687533745
100.97466742488275
100.26729628691693
100.06886189892103
100.01689297356465
100.00398589877673
100.00091206795494
100.00020444338791
100.00004602734924
100.000011382125
100.00000395636103
100.00000240396666
100.00000214539989
100.00000240396655
100.00000395636053
100.00001138214239
100.0000460274345
100.0002044429578
100.0009120686134
100.00398590557903
100.01689297134267
100.06886200541817
100.26729604215706
100.97466795959336
103.27650417775173
109.89858902980843
126.06458330887337
158.21365259042688
158.21365082494063
126.06455593087804
109.89858597416698
103.27650537404529
100.9746659035071
100.26729475231599
100.06886035614019
100.01689142604536
100.00398434869352
100.00091051657883
100.0002028914055
100.00004447510275
100.00000982977178
100.00000240396783
100.00000085155973
100.00000059298984
100.00000085155972
100.00000240396744
100.00000982978916
100.00004447518805
100.00020289097539
100.00091051723733
100.00398435549576
100.01689142382337
100.06886046263735
100.26729450755614
100.97466643821772
103.27650267645951
109.89858755724737
126.0645818751567
158.2136512065105
158.2136505951117
126.06455569275325
109.89858572951954
103.27650512452095
100.9746656505263
100.26729449702003
100.06886009938275
100.01689116842083
100.00398409058671
100.00091025822131
100.0002026329262
100.0000442165685
100.00000957121438
100.00000214540141
100.00000059299022
100.00000033441944
100.00000059299015
100.00000214540103
100.00000957123187
100.00004421665375
100.00020263249617
100.00091025887968
100.003984097389
100.01689116619885
100.06886020587996
100.2672942522601
100.97466618523697
103.27650242693518
109.89858731259994
126.06458163703198
158.2136509766816
158.21365082494086
126.0645559308783
109.89858597416718
103.27650537404553
100.97466590350733
100.26729475231623
100.06886035614039
100.01689142604562
100.00398434869375
100.00091051657905
100.00020289140573
100.00004447510302
100.00000982977204
100.00000240396813
100.00000085156005
100.00000059299
100.00000085155995
100.00000240396766
100.00000982978938
100.0000444751883
100.00020289097574
100.0009105172375
100.00398435549602
100.01689142382365
100.06886046263763
100.2672945075564
100.97466643821795
103.2765026764598
109.89858755724768
126.06458187515696
158.21365120651072
158.21365220885806
126.0645573645958
109.898587446729
103.27650687533857
100.97466742488393
100.26729628691804
100.0688618989221
100.01689297356575
100.00398589877787
100.00091206795612
100.00020444338907
100.00004602735044
100.00001138212616
100.00000395636222
100.00000240396781
100.00000214540106
100.0000024039677
100.0000039563617
100.00001138214343
100.0000460274356
100.00020444295892
100.00091206861454
100.00398590558014
100.01689297134386
100.06886200541933
100.26729604215814
100.97466795959453
103.27650417775286
109.89858902980949
126.06458330887446
158.21365259042793
158.21365885413218
126.06456424799713
109.89859451381541
103.27651407625132
100.97467471754051
100.26730363854806
100.06886928598095
100.01690038045541
100.00399331598095
100.00091949013114
100.00021186778234
100.00005345265907
100.00001880778456
100.00001138214436
100.00000982978993
100.0000095712322
100.00000982978987
100.00001138214387
100.00001880780184
100.00005345274427
100.00021186735222
100.0009194907896
100.00399332278334
100.01690037823346
100.06886939247812
100.26730339378821
100.97467525225117
103.27651137866562
109.89859609689576
126.06459019227546
158.21365923570204
158.21368998390327
126.06459648794046
109.89862759923832
103.27654776697189
100.97470881391594
100.26733798841563
100.06890378301854
100.01693495661156
100.00402793141164
100.00095412352573
100.00024650874093
100.00008809655186
100.00005345272909
100.00004602743859
100.00004447519088
100.00004421665619
100.00004447519075
100.00004602743802
100.0000534527463
100.00008809663707
100.00024650831082
100.00095412418418
100.00402793821394
100.01693495438958
100.06890388951558
100.26733774365604
100.97470934862639
103.27654506938649
109.89862918231853
126.06462243221786
158.21369036547307
158.21383292660101
126.06474450085939
109.89877941764637
103.27670225555714
100.97486504570742
100.26749527442945
100.06906165728137
100.01709313267229
100.00418624945382
100.0011125027303
100.00040491208289
100.00024650864748
100.00021186775884
100.00020444338384
100.00020289140015
100.0002026329204
100.00020289140002
100.00020444338325
100.0002118677761
100.00024650873272
100.00040491165288
100.00111250338871
100.004186256256
100.01709313045039
100.069061763778
100.26749502967033
100.97486558041717
103.27669955797322
109.89878100072616
126.06477044513176
158.21383330817088
158.2144742411126
126.06540842335545
109.89946002668577
103.27739430281156
100.9755643355488
100.26819877974837
100.0697674082816
100.01779997485075
100.00489357423955
100.00182002181688
100.00111250260255
100.00095412330461
100.00091948997998
100.00091206782307
100.00091051644573
100.00091025808779
100.00091051644564
100.00091206782264
100.00091948999727
100.00095412338987
100.00111250217265
100.00182002247523
100.00489358104144
100.01779997262896
100.0697675147768
100.26819853499124
100.97556487025648
103.27739160523421
109.89946160976353
126.06543436760626
158.21447462268262
158.21727280330538
126.0683049461003
109.9024274559586
103.28040902245176
100.9786079385503
100.27125845064172
100.07283518477762
100.02087144840293
100.00796657172422
100.00489358875897
100.00418626384617
100.00402794571082
100.00399333035003
100.00398591316518
100.00398436308065
100.00398410497345
100.00398436308063
100.00398591316468
100.00399333036742
100.00402794579597
100.00418626341634
100.00489358941716
100.00796657852521
100.02087144618142
100.07283529126735
100.27125820589222
100.97860847324938
103.2804063249009
109.90242903902838
126.06833089025878
158.2172731848764
158.22908008726577
126.08052214073598
109.91493461296334
103.29310336098216
100.99141178227158
100.28412001758953
100.08572405747938
100.03377189798881
100.02087143368898
100.01779997464823
100.0170931323422
100.01693495618807
100.01690038010173
100.01689297323021
100.01689142570969
100.0168911680848
100.01689142570956
100.01689297322977
100.01690038011897
100.01693495627315
100.01709313191259
100.0177999753061
100.02087144048724
100.03377189576798
100.08572416395141
100.28411977286632
100.9914123169388
103.29310066353297
109.91493619599997
126.08054808451153
158.229080468841
158.2768579318281
126.12994265678374
109.96548562604755
103.34435598946698
101.04305408634826
100.33595490897663
100.13764344676902
100.08572429016557
100.07283540280396
100.06976764081695
100.06906188969242
100.06890401533755
100.0688695183698
100.0688621313291
100.06886058854711
100.0688603317893
100.06886058854707
100.06886213132871
100.06886951838706
100.06890401542238
100.06906188926362
100.06976764147393
100.07283540959541
100.08572428794662
100.13764355318804
100.33595466433707
101.04305462090517
103.34435329238792
109.96548720895682
126.12996859904493
158.2768583134211
158.46023364370697
126.31955043945518
110.15924174009083
103.54056589521187
101.24054350066481
100.53403012015346
100.33595467108567
100.28412001194756
100.27125843033227
100.26819877390164
100.26749526845533
100.26733798234869
100.26730363255042
100.26729628093838
100.26729474633629
100.26729449103995
100.26729474633613
100.26729628093791
100.26730363256749
100.26733798243319
100.26749526802783
100.26819877455675
100.27125843710822
100.28412000973287
100.33595477736182
100.53402987575613
101.24054403487095
103.54056319938067
110.15924332253948
126.31957637605868
158.46023402536972
159.11741873766272
126.99875956271015
110.85252351618702
104.24169460118995
101.94546528457835
101.24054339234611
101.04305374084963
100.99141166824874
100.97860780992404
100.97556422131495
100.97486493134636
100.9747086994626
100.97467460315603
100.97466731051729
100.97466578914045
100.97466553615928
100.97466578914036
100.97466731051686
100.97467460317301
100.97470869954647
100.97486493092157
100.97556422196632
100.97860781666789
100.99141166604326
101.04305384678308
101.24054314857501
101.9454658177828
104.24169190917496
110.85252509710212
126.99878547967977
159.11741911956236
161.26749360061538
129.21967698357554
113.1164892218159
106.52801360202936
104.24169432936245
103.54056551518022
103.34435537377075
103.29310297513362
103.2804086221199
103.27739391674164
103.2767018693607
103.27654738068408
103.27651369003159
103.27650648913657
103.27650498784324
103.27650473831852
103.27650498784307
103.27650648913612
103.27651369004835
103.27654738076701
103.27670186894034
103.27739391738669
103.28040862880398
103.29310297294622
103.34435547897756
103.54056527283632
104.24169486004934
106.52801092035743
113.11649079814649
129.2197028387334
161.26749398314445
167.48503683880207
135.63802462263519
119.64983572509458
113.11648850050662
110.85252252327155
110.15924063932856
109.9654842924623
109.91493350619156
109.90242633490726
109.89945891967767
109.8987783105132
109.89862649201515
109.8985934066592
109.89858633959021
109.89858486702809
109.89858462238026
109.89858486702803
109.89858633958971
109.89859340667564
109.89862649209664
109.89877831009997
109.89945892031244
109.90242634149065
109.9149335040354
109.96548439630888
110.15924039983274
110.85252304848021
113.11648584311874
119.64983728950577
135.6380503068432
167.48503722225212
182.73186448021826
151.3668617019929
135.6380743457601
129.2197263317917
126.99880876569304
126.3195995754309
126.1299915762158
126.08057128505196
126.06835407723293
126.06545756838653
126.06479364581112
126.06464563281433
126.06461339293831
126.06460650955447
126.06460507583681
126.06460483771167
126.06460507583664
126.06460650955403
126.06461339295444
126.06464563289386
126.06479364540817
126.06545756900593
126.06835408366206
126.0805712829449
126.12999167780335
126.31959934090905
126.99880928065281
129.21972372299382
135.6380758840211
151.36688698620083
182.7318648625975
213.1527869180964
182.73181864201723
167.4850384795806
161.26749456171365
159.11741944323893
158.46023424790633
158.27685831612249
158.22908068621058
158.2172733888008
158.21447483986768
158.2138335252395
158.21369058245747
158.21365945274954
158.2136528074918
158.21365142357428
158.213651193745
158.21365142357425
158.21365280749134
158.213659452765
158.2136905825343
158.21383352485037
158.2144748404662
158.2172733950138
158.2290806841738
158.27685841435772
158.4602340210327
159.11741994166647
161.2674920353017
167.48503997034143
182.7318431595611
213.15278729153138
