# vtk DataFile Version 2.0
Unstructured Grid Example
ASCII
DATASET UNSTRUCTURED_GRID

POINTS 961 float
0.100000001 0.00499999989 0
0.0966666639 0.00499999989 0
0.0933333337 0.00499999989 0
0.0900000036 0.00499999989 0
0.086666666 0.00499999989 0
0.0833333358 0.00499999989 0
0.0799999982 0.00499999989 0
0.0766666681 0.00499999989 0
0.0733333305 0.00499999989 0
0.0700000003 0.00499999989 0
0.0666666701 0.00499999989 0
0.0633333325 0.00499999989 0
0.0599999987 0.00499999989 0
0.0566666685 0.00499999989 0
0.0533333346 0.00499999989 0
0.0500000007 0.00499999989 0
0.0466666669 0.00499999989 0
0.043333333 0.00499999989 0
0.0399999991 0.00499999989 0
0.0366666652 0.00499999989 0
0.0333333351 0.00499999989 0
0.0299999993 0.00499999989 0
0.0266666673 0.00499999989 0
0.0233333334 0.00499999989 0
0.0199999996 0.00499999989 0
0.0166666675 0.00499999989 0
0.0133333337 0.00499999989 0
0.00999999978 0.00499999989 0
0.00666666683 0.00499999989 0
0.00333333341 0.00499999989 0
0.0 0.00499999989 0
0.100000001 0.00166666671 0
0.0966666639 0.00166666671 0
0.0933333337 0.00166666671 0
0.0900000036 0.00166666671 0
0.086666666 0.00166666671 0
0.0833333358 0.00166666671 0
0.0799999982 0.00166666671 0
0.0766666681 0.00166666671 0
0.0733333305 0.00166666671 0
0.0700000003 0.00166666671 0
0.0666666701 0.00166666671 0
0.0633333325 0.00166666671 0
0.0599999987 0.00166666671 0
0.0566666685 0.00166666671 0
0.0533333346 0.00166666671 0
0.0500000007 0.00166666671 0
0.0466666669 0.00166666671 0
0.043333333 0.00166666671 0
0.0399999991 0.00166666671 0
0.0366666652 0.00166666671 0
0.0333333351 0.00166666671 0
0.0299999993 0.00166666671 0
0.0266666673 0.00166666671 0
0.0233333334 0.00166666671 0
0.0199999996 0.00166666671 0
0.0166666675 0.00166666671 0
0.0133333337 0.00166666671 0
0.00999999978 0.00166666671 0
0.00666666683 0.00166666671 0
0.00333333341 0.00166666671 0
0.0 0.00166666671 0
0.100000001 -0.00166666671 0
0.0966666639 -0.00166666671 0
0.0933333337 -0.00166666671 0
0.0900000036 -0.00166666671 0
0.086666666 -0.00166666671 0
0.0833333358 -0.00166666671 0
0.0799999982 -0.00166666671 0
0.0766666681 -0.00166666671 0
0.0733333305 -0.00166666671 0
0.0700000003 -0.00166666671 0
0.0666666701 -0.00166666671 0
0.0633333325 -0.00166666671 0
0.0599999987 -0.00166666671 0
0.0566666685 -0.00166666671 0
0.0533333346 -0.00166666671 0
0.0500000007 -0.00166666671 0
0.0466666669 -0.00166666671 0
0.043333333 -0.00166666671 0
0.0399999991 -0.00166666671 0
0.0366666652 -0.00166666671 0
0.0333333351 -0.00166666671 0
0.0299999993 -0.00166666671 0
0.0266666673 -0.00166666671 0
0.0233333334 -0.00166666671 0
0.0199999996 -0.00166666671 0
0.0166666675 -0.00166666671 0
0.0133333337 -0.00166666671 0
0.00999999978 -0.00166666671 0
0.00666666683 -0.00166666671 0
0.00333333341 -0.00166666671 0
0.0 -0.00166666671 0
0.100000001 -0.00499999989 0
0.0966666639 -0.00499999989 0
0.0933333337 -0.00499999989 0
0.0900000036 -0.00499999989 0
0.086666666 -0.00499999989 0
0.0833333358 -0.00499999989 0
0.0799999982 -0.00499999989 0
0.0766666681 -0.00499999989 0
0.0733333305 -0.00499999989 0
0.0700000003 -0.00499999989 0
0.0666666701 -0.00499999989 0
0.0633333325 -0.00499999989 0
0.0599999987 -0.00499999989 0
0.0566666685 -0.00499999989 0
0.0533333346 -0.00499999989 0
0.0500000007 -0.00499999989 0
0.0466666669 -0.00499999989 0
0.043333333 -0.00499999989 0
0.0399999991 -0.00499999989 0
0.0366666652 -0.00499999989 0
0.0333333351 -0.00499999989 0
0.0299999993 -0.00499999989 0
0.0266666673 -0.00499999989 0
0.0233333334 -0.00499999989 0
0.0199999996 -0.00499999989 0
0.0166666675 -0.00499999989 0
0.0133333337 -0.00499999989 0
0.00999999978 -0.00499999989 0
0.00666666683 -0.00499999989 0
0.00333333341 -0.00499999989 0
0.0 -0.00499999989 0
0.100000001 -0.00833333377 0
0.0966666639 -0.00833333377 0
0.0933333337 -0.00833333377 0
0.0900000036 -0.00833333377 0
0.086666666 -0.00833333377 0
0.0833333358 -0.00833333377 0
0.0799999982 -0.00833333377 0
0.0766666681 -0.00833333377 0
0.0733333305 -0.00833333377 0
0.0700000003 -0.00833333377 0
0.0666666701 -0.00833333377 0
0.0633333325 -0.00833333377 0
0.0599999987 -0.00833333377 0
0.0566666685 -0.00833333377 0
0.0533333346 -0.00833333377 0
0.0500000007 -0.00833333377 0
0.0466666669 -0.00833333377 0
0.043333333 -0.00833333377 0
0.0399999991 -0.00833333377 0
0.0366666652 -0.00833333377 0
0.0333333351 -0.00833333377 0
0.0299999993 -0.00833333377 0
0.0266666673 -0.00833333377 0
0.0233333334 -0.00833333377 0
0.0199999996 -0.00833333377 0
0.0166666675 -0.00833333377 0
0.0133333337 -0.00833333377 0
0.00999999978 -0.00833333377 0
0.00666666683 -0.00833333377 0
0.00333333341 -0.00833333377 0
0.0 -0.00833333377 0
0.100000001 -0.0116666667 0
0.0966666639 -0.0116666667 0
0.0933333337 -0.0116666667 0
0.0900000036 -0.0116666667 0
0.086666666 -0.0116666667 0
0.0833333358 -0.0116666667 0
0.0799999982 -0.0116666667 0
0.0766666681 -0.0116666667 0
0.0733333305 -0.0116666667 0
0.0700000003 -0.0116666667 0
0.0666666701 -0.0116666667 0
0.0633333325 -0.0116666667 0
0.0599999987 -0.0116666667 0
0.0566666685 -0.0116666667 0
0.0533333346 -0.0116666667 0
0.0500000007 -0.0116666667 0
0.0466666669 -0.0116666667 0
0.043333333 -0.0116666667 0
0.0399999991 -0.0116666667 0
0.0366666652 -0.0116666667 0
0.0333333351 -0.0116666667 0
0.0299999993 -0.0116666667 0
0.0266666673 -0.0116666667 0
0.0233333334 -0.0116666667 0
0.0199999996 -0.0116666667 0
0.0166666675 -0.0116666667 0
0.0133333337 -0.0116666667 0
0.00999999978 -0.0116666667 0
0.00666666683 -0.0116666667 0
0.00333333341 -0.0116666667 0
0.0 -0.0116666667 0
0.100000001 -0.0149999997 0
0.0966666639 -0.0149999997 0
0.0933333337 -0.0149999997 0
0.0900000036 -0.0149999997 0
0.086666666 -0.0149999997 0
0.0833333358 -0.0149999997 0
0.0799999982 -0.0149999997 0
0.0766666681 -0.0149999997 0
0.0733333305 -0.0149999997 0
0.0700000003 -0.0149999997 0
0.0666666701 -0.0149999997 0
0.0633333325 -0.0149999997 0
0.0599999987 -0.0149999997 0
0.0566666685 -0.0149999997 0
0.0533333346 -0.0149999997 0
0.0500000007 -0.0149999997 0
0.0466666669 -0.0149999997 0
0.043333333 -0.0149999997 0
0.0399999991 -0.0149999997 0
0.0366666652 -0.0149999997 0
0.0333333351 -0.0149999997 0
0.0299999993 -0.0149999997 0
0.0266666673 -0.0149999997 0
0.0233333334 -0.0149999997 0
0.0199999996 -0.0149999997 0
0.0166666675 -0.0149999997 0
0.0133333337 -0.0149999997 0
0.00999999978 -0.0149999997 0
0.00666666683 -0.0149999997 0
0.00333333341 -0.0149999997 0
0.0 -0.0149999997 0
0.100000001 -0.0183333326 0
0.0966666639 -0.0183333326 0
0.0933333337 -0.0183333326 0
0.0900000036 -0.0183333326 0
0.086666666 -0.0183333326 0
0.0833333358 -0.0183333326 0
0.0799999982 -0.0183333326 0
0.0766666681 -0.0183333326 0
0.0733333305 -0.0183333326 0
0.0700000003 -0.0183333326 0
0.0666666701 -0.0183333326 0
0.0633333325 -0.0183333326 0
0.0599999987 -0.0183333326 0
0.0566666685 -0.0183333326 0
0.0533333346 -0.0183333326 0
0.0500000007 -0.0183333326 0
0.0466666669 -0.0183333326 0
0.043333333 -0.0183333326 0
0.0399999991 -0.0183333326 0
0.0366666652 -0.0183333326 0
0.0333333351 -0.0183333326 0
0.0299999993 -0.0183333326 0
0.0266666673 -0.0183333326 0
0.0233333334 -0.0183333326 0
0.0199999996 -0.0183333326 0
0.0166666675 -0.0183333326 0
0.0133333337 -0.0183333326 0
0.00999999978 -0.0183333326 0
0.00666666683 -0.0183333326 0
0.00333333341 -0.0183333326 0
0.0 -0.0183333326 0
0.100000001 -0.0216666665 0
0.0966666639 -0.0216666665 0
0.0933333337 -0.0216666665 0
0.0900000036 -0.0216666665 0
0.086666666 -0.0216666665 0
0.0833333358 -0.0216666665 0
0.0799999982 -0.0216666665 0
0.0766666681 -0.0216666665 0
0.0733333305 -0.0216666665 0
0.0700000003 -0.0216666665 0
0.0666666701 -0.0216666665 0
0.0633333325 -0.0216666665 0
0.0599999987 -0.0216666665 0
0.0566666685 -0.0216666665 0
0.0533333346 -0.0216666665 0
0.0500000007 -0.0216666665 0
0.0466666669 -0.0216666665 0
0.043333333 -0.0216666665 0
0.0399999991 -0.0216666665 0
0.0366666652 -0.0216666665 0
0.0333333351 -0.0216666665 0
0.0299999993 -0.0216666665 0
0.0266666673 -0.0216666665 0
0.0233333334 -0.0216666665 0
0.0199999996 -0.0216666665 0
0.0166666675 -0.0216666665 0
0.0133333337 -0.0216666665 0
0.00999999978 -0.0216666665 0
0.00666666683 -0.0216666665 0
0.00333333341 -0.0216666665 0
0.0 -0.0216666665 0
0.100000001 -0.0250000004 0
0.0966666639 -0.0250000004 0
0.0933333337 -0.0250000004 0
0.0900000036 -0.0250000004 0
0.086666666 -0.0250000004 0
0.0833333358 -0.0250000004 0
0.0799999982 -0.0250000004 0
0.0766666681 -0.0250000004 0
0.0733333305 -0.0250000004 0
0.0700000003 -0.0250000004 0
0.0666666701 -0.0250000004 0
0.0633333325 -0.0250000004 0
0.0599999987 -0.0250000004 0
0.0566666685 -0.0250000004 0
0.0533333346 -0.0250000004 0
0.0500000007 -0.0250000004 0
0.0466666669 -0.0250000004 0
0.043333333 -0.0250000004 0
0.0399999991 -0.0250000004 0
0.0366666652 -0.0250000004 0
0.0333333351 -0.0250000004 0
0.0299999993 -0.0250000004 0
0.0266666673 -0.0250000004 0
0.0233333334 -0.0250000004 0
0.0199999996 -0.0250000004 0
0.0166666675 -0.0250000004 0
0.0133333337 -0.0250000004 0
0.00999999978 -0.0250000004 0
0.00666666683 -0.0250000004 0
0.00333333341 -0.0250000004 0
0.0 -0.0250000004 0
0.100000001 -0.0283333343 0
0.0966666639 -0.0283333343 0
0.0933333337 -0.0283333343 0
0.0900000036 -0.0283333343 0
0.086666666 -0.0283333343 0
0.0833333358 -0.0283333343 0
0.0799999982 -0.0283333343 0
0.0766666681 -0.0283333343 0
0.0733333305 -0.0283333343 0
0.0700000003 -0.0283333343 0
0.0666666701 -0.0283333343 0
0.0633333325 -0.0283333343 0
0.0599999987 -0.0283333343 0
0.0566666685 -0.0283333343 0
0.0533333346 -0.0283333343 0
0.0500000007 -0.0283333343 0
0.0466666669 -0.0283333343 0
0.043333333 -0.0283333343 0
0.0399999991 -0.0283333343 0
0.0366666652 -0.0283333343 0
0.0333333351 -0.0283333343 0
0.0299999993 -0.0283333343 0
0.0266666673 -0.0283333343 0
0.0233333334 -0.0283333343 0
0.0199999996 -0.0283333343 0
0.0166666675 -0.0283333343 0
0.0133333337 -0.0283333343 0
0.00999999978 -0.0283333343 0
0.00666666683 -0.0283333343 0
0.00333333341 -0.0283333343 0
0.0 -0.0283333343 0
[...]
POINT_DATA 961
SCALARS Temp float 1
LOOKUP_TABLE default
268.2406890050148
236.39057279618146
214.78630502374597
201.55530097142758
194.23169372618494
190.5510440534119
188.85995009319976
188.14394605962286
187.86226486381335
187.75847566973025
187.72239297295081
187.7104787751679
187.7067209391329
187.7055843865824
187.70525875418534
187.70519054003407
187.70525875416467
187.70558438650446
187.7067209412502
187.7104787824248
187.7223929473959
187.75847569588672
187.86226503714903
188.14394601373053
188.8599511877361
190.55104240978147
194.23169581043416
201.55529402106566
214.78630744826265
236.39060196897285
268.24068869001263
236.3906041305234
203.45074938004848
181.10536837013535
167.41887998179
159.8420755272778
156.03356958093912
154.28343720259235
153.5423102222136
153.25069658054434
153.14323026818545
153.10586346142802
153.09352347292895
153.0896308103925
153.08845333110037
153.0881159347948
153.0880452507994
153.08811593477344
153.0884533310195
153.0896308125859
153.09352348044547
153.1058634349619
153.14323029526977
153.2506967600033
153.54231017470204
154.28343833542138
156.03356788004328
159.84207768373358
167.4188727915646
181.10537087792284
203.4507795521702
236.39060380473347
214.78630897308597
181.10533931496605
158.25224896112437
144.25063834942318
136.49657607354277
132.59737792608956
130.80478874192906
130.04534426148214
129.7463909517406
129.63617242593827
129.59783287041566
129.58516669627042
129.5811696678171
129.57996020361122
129.5796135355121
129.5795408935549
129.57961353549
129.57996020352826
129.5811696700696
129.58516670398663
129.59783284325582
129.63617245372163
129.7463911357461
130.04534421277182
130.8047899024563
132.59737618423938
136.4965782808379
144.25063099210502
158.25225152614948
181.10537016900153
214.78630863994977
201.55529438280368
167.41883957338757
144.2506271384477
130.05081305287655
122.18346110373379
118.22525801497828
116.40452542676134
115.63270886835168
115.3287067987942
115.21656188068363
115.1775302525383
115.16462846330992
115.16055498436269
115.15932178780449
115.15896816203063
115.15889403942056
115.15896816200818
115.15932178771995
115.16055498665875
115.16462847117097
115.17753022488137
115.21656190895939
115.32870698594823
115.63270881881455
116.40452660579525
118.22525624618208
122.18346334377384
130.0508055894797
144.2506297391615
167.4188708484374
201.5552940451645
194.2316962427723
159.8420442858951
136.49657446913864
122.18347094147461
114.25009426790275
110.25674523068828
108.41885772825086
107.63932133082679
107.3320959551072
107.2186938945022
107.1792012104383
107.16613941175474
107.16201308500423
107.16076321444402
107.16040463013543
107.16032944203292
107.1604046301127
107.16076321435823
107.16201308733045
107.16613941971481
107.17920118244731
107.21869392310236
107.33209614428833
107.63932128075983
108.41885891867838
110.25674344561627
114.25009652720811
122.18346341675918
136.49657709003952
159.84207579627642
194.23169590265613
190.55104344559288
156.03353497835377
132.59737299527802
118.22526452432098
110.25674182971568
106.24421470810945
104.39671413720387
103.6127321928187
103.30359978113904
103.1894342677555
103.14965457152016
103.13649083224163
103.13233010639865
103.13106916694157
103.13070723365371
103.13063131746127
103.13070723363077
103.13106916685494
103.13233010874468
103.13649084026525
103.14965454331897
103.18943429655492
103.30359997153153
103.61273214243684
104.39671533409087
106.24421291401116
110.25674409938732
118.22525696726511
132.59737562657284
156.03356660830724
190.5510431042527
188.8599515426804
154.28340466952167
130.80478598408598
116.4045341663238
108.4188565575632
104.39671638729313
102.54425568198339
101.7579096544969
101.44773184737001
101.33313520891477
101.29318875802704
101.27996418018135
101.2757824046591
101.27451453404325
101.2741504608487
101.27407407303409
101.27415046082564
101.27451453395618
101.27578240701732
101.2799641882433
101.29318872970208
101.33313523782809
101.44773203843444
101.75790960394147
102.54425688224691
104.39671458858942
108.41885883235351
116.40452659363802
130.80478862027977
154.28343635505007
188.8599512007938
188.1439464838945
153.54227660254347
130.0453404132333
115.63271651033737
107.63931904255875
103.61273332300124
101.75790852852873
100.9703991141233
100.65968975008306
100.54486665370959
100.50482980372429
100.49157123749166
100.48737736477831
100.48610540510195
100.48574004002802
100.48566336304077
100.48574004000491
100.48610540501461
100.48737736714364
100.49157124557532
100.50482977533154
100.5448666826837
100.65968994149343
100.97039906347891
101.75790973042388
103.61273152212776
107.63932131967987
115.63270893068938
130.04534305155585
153.5423083118781
188.1439461417854
187.86226542622276
153.25066309375697
129.7463872488326
115.32871459286163
107.33209381672096
103.3036010638165
101.44773087318616
100.6596899028545
100.34872925836123
100.23379536414333
100.19371276025618
100.1804364187075
100.17623601931376
100.17496178845823
100.17459568719723
100.1745188425624
100.17459568717398
100.17496178837077
100.17623602168317
100.18043642680263
100.19371273182834
100.23379539314772
100.34872944993742
100.65968985216777
101.44773207581304
103.3035992619948
107.33209609482664
115.32870701033582
129.7463898880144
153.25069481256492
187.8622650840306
187.7584760201867
153.14319655817755
129.63616849751642
115.21656944698432
107.21869152436125
103.1894353178304
101.33313400077182
100.54486657238363
100.23379512977483
100.1188106238992
100.07870636687677
100.06542131599568
100.06121761006713
100.05994219177931
100.05957569472433
100.05949875825796
100.05957569470112
100.05994219169176
100.06121761243855
100.0654213240965
100.07870633843206
100.11881065291745
100.23379532142515
100.54486652167805
101.33313520370488
103.18943351562197
107.21869380285534
115.21656186334707
129.6361711370227
153.1432282805147
187.75847567796578
187.72239329545067
153.10582972114113
129.59782891210352
115.17753778898584
107.17919880953193
103.14965559084146
101.29318751879057
100.50482969134411
100.1937124947675
100.07870633577687
100.03859247488131
100.02530341991383
100.02109813959056
100.01982213671268
100.01945543891776
100.01937845494167
100.01945543889447
100.01982213662507
100.02109814196275
100.02530342801732
100.03859244642899
100.07870636480122
100.19371268644872
100.50482964063073
101.29318872184363
103.14965378848507
107.17920108816998
115.17753020494499
129.59783155172522
153.10586144471793
187.72239295322046
187.71047912271922
153.09348975814484
129.58516276452417
115.16463602700995
107.16613703824058
103.13649187924794
101.27996296867695
100.49157115295304
100.18043618108388
100.0654213127929
100.02530344782203
100.01201266171402
100.00780667578229
100.00653040166203
100.00616360778767
100.00608660059714
100.00616360776436
100.00653040157424
100.00780667815494
100.0120126698186
100.0253034193664
100.0654213418197
100.18043637277731
100.49157110223646
101.27996417177442
103.13649007683811
107.16613931692906
115.16462844283032
129.58516540418495
153.09352148213532
187.710478780486
187.70672128305876
153.08959709171282
129.58116573219698
115.16056254418173
107.16201070749754
103.13233114941
101.27578118911497
100.48737727620386
100.17623577764473
100.06121760282191
100.02109816345622
100.00780667173801
100.0036003876235
100.00232399477167
100.00195715748555
100.00188013958295
100.0019571574622
100.00232399468386
100.00360038999634
100.00780667984297
100.02109813499935
100.06121763184971
100.17623596934266
100.48737722548611
101.27578239222785
103.13232934698192
107.16201298620294
115.16055495995651
129.58116837187035
153.0896288158347
187.70672094082465
187.70558472872827
153.08841961053392
129.57995626609133
115.15932934570709
107.1607608349755
103.13107020798344
101.27451331651046
100.48610531453771
100.1749615447942
100.05994218253933
100.01982215858338
100.00653039562184
100.00232399277566
100.00104755098131
100.00068069523216
100.00060367267878
100.00068069520886
100.0010475508935
100.00232399514856
100.00653040372703
100.01982213012603
100.05994221156752
100.17496173649386
100.4861052638196
101.27451451962861
103.13106840554944
107.16076311368639
115.15932176146765
129.57995890576868
153.08845133469583
187.70558438649405
187.70525909652466
153.08808221441652
129.57960959819633
115.15897572014728
107.16040225087812
103.13070827491133
101.27414924353027
100.48573994968027
100.17459544374954
100.05957568570143
100.0194554610059
100.00616360196481
100.00195715570689
100.0006806954496
100.00031383253665
100.00023680814515
100.00031383251333
100.00068069536182
100.00195715807992
100.00616361007017
100.01945543254845
100.05957571472982
100.17459563544966
100.48573989896192
101.27415044665
103.13070647247554
107.1604045295905
115.15896813590363
129.57961223787476
153.08811393859003
187.70525875429038
187.7051908824721
153.0880115305205
129.5795369563439
115.15890159764515
107.1603270628838
103.13063235882882
101.27407285582557
100.48566327280362
100.17451859922548
100.05949874934619
100.01937847714107
100.00608659488557
100.0018801379156
100.00060367300748
100.0002368082564
100.00015978338762
100.00023680823307
100.00060367291971
100.00188014028859
100.0060866029909
100.0193784486836
100.05949877837462
100.17451879092576
100.48566322208545
101.27407405894564
103.13063055639252
107.16032934159664
115.15889401340063
129.57953959602244
153.08804325469643
187.70519054023777
187.7052590965832
153.08808221447714
129.57960959825868
115.15897572021085
107.16040225094254
103.13070827497646
101.2741492435957
100.48573994974588
100.17459544381529
100.05957568576731
100.01945546107184
100.00616360203081
100.00195715577287
100.00068069551558
100.00031383260259
100.0002368082111
100.00031383257927
100.00068069542782
100.00195715814583
100.00616361013606
100.01945543261435
100.05957571479571
100.17459563551546
100.48573989902762
101.2741504467155
103.13070647254062
107.16040452965501
115.15896813596734
129.57961223793714
153.08811393865065
187.7052587543488
187.70558472892296
153.08841961073563
129.57995626629852
115.15932934591844
107.16076083518979
103.13107020819955
101.27451331672783
100.4861053147557
100.17496154501268
100.059942182758
100.0198221588022
100.00653039584068
100.00232399299453
100.00104755120016
100.00068069545107
100.00060367289768
100.00068069542777
100.0010475511124
100.00232399536742
100.00653040394592
100.01982213034475
100.05994221178612
100.17496173671228
100.48610526403768
101.27451451984591
103.13106840576556
107.16076311390066
115.15932176167905
129.57995890597587
153.08845133489757
187.70558438668866
187.70672128370677
153.0895970923842
129.58116573288635
115.16056254488443
107.16201070820938
103.13233115012787
101.27578118983658
100.48737727692769
100.17623577836957
100.06121760354739
100.02109816418198
100.00780667246394
100.0036003883495
100.00232399549779
100.00195715821141
100.00188014030911
100.00195715818828
100.00232399541001
100.00360039072233
100.00780668056895
100.02109813572517
100.06121763257514
100.1762359700677
100.48737722620994
101.27578239294944
103.13232934769984
107.16201298691493
115.16055496065934
129.5811683725597
153.08962881650595
187.70672094147264
187.71047912500717
153.09348976051467
129.58516276695698
115.16463602948836
107.16613704074997
103.13649188177729
101.27996297121857
100.49157115550136
100.18043618363576
100.06542131534653
100.02530345037651
100.0120126642689
100.00780667833735
100.00653040421707
100.00616361034282
100.00608660315223
100.00616361031948
100.00653040412934
100.00780668070993
100.01201267237342
100.02530342192088
100.06542134437332
100.18043637532922
100.49157110478474
101.2799641743159
103.13649007936765
107.16613931943864
115.16462844530864
129.58516540661773
153.093521484505
187.71047878277375
187.722393314661
153.1058297410361
129.59782893251955
115.17753780977439
107.17919883057056
103.1496556120372
101.29318754007866
100.50482971268282
100.19371251613214
100.07870635715396
100.03859249626399
100.02530344129893
100.02109816097658
100.01982215809917
100.0194554603043
100.01937847632824
100.019455460281
100.01982215801141
100.02109816334871
100.02530344940234
100.03859246781171
100.07870638617833
100.19371270781329
100.50482966196928
101.29318874313164
103.14965380968087
107.1792011092086
115.17753022573358
129.59783157214122
153.10586146461284
187.72239297243053
187.75847600609157
153.1431965435817
129.63616848254307
115.21656943174347
107.21869150894368
103.18943530230386
101.3331339851825
100.54486655676064
100.23379511413502
100.11881060825145
100.07870635122548
100.06542130034308
100.0612175944141
100.05994217612609
100.05957567907092
100.0594987426045
100.05957567904764
100.05994217603845
100.06121759678541
100.0654213084439
100.07870632278087
100.1188106372697
100.23379530578528
100.54486650605507
101.3331351881156
103.18943350009533
107.21869378743784
115.21656184810632
129.63617112204926
153.14322826591842
187.75847566387037
187.86226557521155
153.25066324800954
129.7463874069956
115.3287147537339
107.33209397933884
103.30360122747851
101.44773103742779
100.659690067395
100.34872942304514
100.23379552889143
100.19371292503115
100.18043658349326
100.17623618410349
100.17496195324932
100.17459585198877
100.17451900735394
100.17459585196546
100.17496195316173
100.17623618647272
100.18043659158826
100.19371289660337
100.23379555789577
100.34872961462126
100.65969001670827
101.44773224005468
103.30359942565669
107.33209625744449
115.32870717120812
129.74639004617757
153.25069496681763
187.86226523301943
188.1439463773084
153.54227649220465
130.04534030013275
115.63271639534747
107.6393189263704
103.61273320610904
101.75790841125382
100.97039899665549
100.65968963252483
100.5448665361118
100.50482968611033
100.4915711198714
100.48737724715569
100.48610528747868
100.48573992240448
100.48566324541714
100.48573992238117
100.48610528739121
100.48737724952113
100.49157112795507
100.50482965771735
100.5448665650859
100.65968982393514
100.97039894601099
101.757909613149
103.61273140523556
107.63932120349145
115.63270881569942
130.04534293845546
153.5423082015394
188.14394603519938
188.85995282494778
154.28340599665276
130.8047873436745
116.40453554760536
108.4188579522047
104.39671778951218
102.54425708816532
101.75791106259501
101.44773325632814
101.33313661823283
101.29319016748627
101.27996558969284
101.27578381418884
101.27451594357915
101.27415187038649
101.27407548257224
101.27415187036337
101.27451594349195
101.27578381654705
101.27996559775481
101.29319013916137
101.33313664714616
101.44773344739245
101.75791101203957
102.54425828842884
104.39671599080849
108.41886022699497
116.40452797491959
130.8047899798685
154.28343768218124
188.85995248306122
190.5510442062618
156.03353576547096
132.59737380120367
118.22526534252545
110.2567426552646
106.24421553768518
104.39671496880848
103.61273302536664
103.30360061409401
103.18943510087442
103.14965540470097
103.13649166544448
103.13233093960918
103.13107000015442
103.13070806686734
103.13063215067494
103.13070806684429
103.13107000006775
103.13233094195505
103.13649167346821
103.14965537649975
103.18943512967375
103.30360080448655
103.61273297498491
104.39671616569557
106.24421374358703
110.25674492493634
118.22525778546964
132.5973764324984
156.0335673954245
190.55104386492178
194.23169346393772
159.84204141072678
136.4965715260188
122.18346795447678
114.25009125500739
110.2567422038068
108.41885469443571
107.63931829384123
107.33209291677687
107.21869085563937
107.17919817137724
107.16613637262397
107.16201004585002
107.16076017528236
107.16040159097149
107.16032640286845
107.16040159094868
107.16076017519649
107.16201004817613
107.16613638058385
107.1791981433861
107.21869088423935
107.33209310595792
107.63931824377441
108.41885588486348
110.25674041873498
114.25009351431297
122.18346042976131
136.49657414691973
159.84207292110835
194.23169312382186
201.55530000520025
167.41884538972494
144.2506330897075
130.05081908964095
122.18346718982188
118.22526412702302
116.40453155132353
115.63271499847845
115.32871293121694
115.21656801399169
115.17753638616753
115.16463459704948
115.16056111813846
115.15932792159148
115.15897429582084
115.15890017321135
115.15897429579834
115.15932792150674
115.16056112043424
115.16463460491032
115.17753635851051
115.21656804226726
115.32871311837081
115.63271494894138
116.40453273035756
118.22526235822701
122.18346942986201
130.05081162624427
144.2506356904214
167.41887666477467
201.5552996675612
214.78630293307575
181.10533306728834
158.25224257028336
144.25063186897523
136.49656954218733
132.5973713684057
130.8047821717837
130.0453376859027
129.74638437396172
129.63616584732702
129.5978262915078
129.58516011726218
129.58116308877644
129.57995362456055
129.5796069564584
129.5795343145007
129.57960695643646
129.5799536244775
129.5811630910287
129.5851601249781
129.59782626434765
129.6361658751099
129.74638455796702
130.04533763719226
130.80478333231096
132.5973696265555
136.49657174948257
144.2506245116571
158.25224513530873
181.10536392132423
214.78630259993977
236.39062855539714
203.45077464162307
181.10539420266937
167.4189061668456
159.84210190938137
156.03359606315954
154.28346373134158
153.54233677089172
153.25072313715168
153.1432568277459
153.1058900220259
153.0935500338726
153.08965737144615
153.08847989218765
153.0881424958918
153.08807181189826
153.08814249587036
153.08847989210673
153.08965737363943
153.09355004138894
153.10588999555955
153.14325685483013
153.2507233166101
153.54233672337992
154.28346486417038
156.0335943622636
159.84210406583747
167.41889897662062
181.10539671045697
203.45080481374433
236.39062822960733
268.24068879546076
236.39057257949827
214.7863048022955
201.5553007471238
194.23169350035283
190.55104382684465
188.85994986631195
188.14394583260716
187.86226463675072
187.75847544265147
187.72239274586667
187.71047854808202
187.70672071204655
187.70558415949594
187.70525852709875
187.70519031294756
187.705258527078
187.70558415941784
187.70672071416382
187.71047855533868
187.72239272031143
187.7584754688075
187.8622648100862
188.14394578671462
188.85995096084818
190.55104218321404
194.23169558460225
201.555293796762
214.78630722681245
236.3906017522898
268.24068848045886
