# vtk DataFile Version 2.0
Unstructured Grid Example
ASCII
DATASET UNSTRUCTURED_GRID

POINTS 961 float
0.100000001 0.00499999989 0
0.0966666639 0.00499999989 0
0.0933333337 0.00499999989 0
0.0900000036 0.00499999989 0
0.086666666 0.00499999989 0
0.0833333358 0.00499999989 0
0.0799999982 0.00499999989 0
0.0766666681 0.00499999989 0
0.0733333305 0.00499999989 0
0.0700000003 0.00499999989 0
0.0666666701 0.00499999989 0
0.0633333325 0.00499999989 0
0.0599999987 0.00499999989 0
0.0566666685 0.00499999989 0
0.0533333346 0.00499999989 0
0.0500000007 0.00499999989 0
0.0466666669 0.00499999989 0
0.043333333 0.00499999989 0
0.0399999991 0.00499999989 0
0.0366666652 0.00499999989 0
0.0333333351 0.00499999989 0
0.0299999993 0.00499999989 0
0.0266666673 0.00499999989 0
0.0233333334 0.00499999989 0
0.0199999996 0.00499999989 0
0.0166666675 0.00499999989 0
0.0133333337 0.00499999989 0
0.00999999978 0.00499999989 0
0.00666666683 0.00499999989 0
0.00333333341 0.00499999989 0
0.0 0.00499999989 0
0.100000001 0.00166666671 0
0.0966666639 0.00166666671 0
0.0933333337 0.00166666671 0
0.0900000036 0.00166666671 0
0.086666666 0.00166666671 0
0.0833333358 0.00166666671 0
0.0799999982 0.00166666671 0
0.0766666681 0.00166666671 0
0.0733333305 0.00166666671 0
0.0700000003 0.00166666671 0
0.0666666701 0.00166666671 0
0.0633333325 0.00166666671 0
0.0599999987 0.00166666671 0
0.0566666685 0.00166666671 0
0.0533333346 0.00166666671 0
0.0500000007 0.00166666671 0
0.0466666669 0.00166666671 0
0.043333333 0.00166666671 0
0.0399999991 0.00166666671 0
0.0366666652 0.00166666671 0
0.0333333351 0.00166666671 0
0.0299999993 0.00166666671 0
0.0266666673 0.00166666671 0
0.0233333334 0.00166666671 0
0.0199999996 0.00166666671 0
0.0166666675 0.00166666671 0
0.0133333337 0.00166666671 0
0.00999999978 0.00166666671 0
0.00666666683 0.00166666671 0
0.00333333341 0.00166666671 0
0.0 0.00166666671 0
0.100000001 -0.00166666671 0
0.0966666639 -0.00166666671 0
0.0933333337 -0.00166666671 0
0.0900000036 -0.00166666671 0
0.086666666 -0.00166666671 0
0.0833333358 -0.00166666671 0
0.0799999982 -0.00166666671 0
0.0766666681 -0.00166666671 0
0.0733333305 -0.00166666671 0
0.0700000003 -0.00166666671 0
0.0666666701 -0.00166666671 0
0.0633333325 -0.00166666671 0
0.0599999987 -0.00166666671 0
0.0566666685 -0.00166666671 0
0.0533333346 -0.00166666671 0
0.0500000007 -0.00166666671 0
0.0466666669 -0.00166666671 0
0.043333333 -0.00166666671 0
0.0399999991 -0.00166666671 0
0.0366666652 -0.00166666671 0
0.0333333351 -0.00166666671 0
0.0299999993 -0.00166666671 0
0.0266666673 -0.00166666671 0
0.0233333334 -0.00166666671 0
0.0199999996 -0.00166666671 0
0.0166666675 -0.00166666671 0
0.0133333337 -0.00166666671 0
0.00999999978 -0.00166666671 0
0.00666666683 -0.00166666671 0
0.00333333341 -0.00166666671 0
0.0 -0.00166666671 0
0.100000001 -0.00499999989 0
0.0966666639 -0.00499999989 0
0.0933333337 -0.00499999989 0
0.0900000036 -0.00499999989 0
0.086666666 -0.00499999989 0
0.0833333358 -0.00499999989 0
0.0799999982 -0.00499999989 0
0.0766666681 -0.00499999989 0
0.0733333305 -0.00499999989 0
0.0700000003 -0.00499999989 0
0.0666666701 -0.00499999989 0
0.0633333325 -0.00499999989 0
0.0599999987 -0.00499999989 0
0.0566666685 -0.00499999989 0
0.0533333346 -0.00499999989 0
0.0500000007 -0.00499999989 0
0.0466666669 -0.00499999989 0
0.043333333 -0.00499999989 0
0.0399999991 -0.00499999989 0
0.0366666652 -0.00499999989 0
0.0333333351 -0.00499999989 0
0.0299999993 -0.00499999989 0
0.0266666673 -0.00499999989 0
0.0233333334 -0.00499999989 0
0.0199999996 -0.00499999989 0
0.0166666675 -0.00499999989 0
0.0133333337 -0.00499999989 0
0.00999999978 -0.00499999989 0
0.00666666683 -0.00499999989 0
0.00333333341 -0.00499999989 0
0.0 -0.00499999989 0
0.100000001 -0.00833333377 0
0.0966666639 -0.00833333377 0
0.0933333337 -0.00833333377 0
0.0900000036 -0.00833333377 0
0.086666666 -0.00833333377 0
0.0833333358 -0.00833333377 0
0.0799999982 -0.00833333377 0
0.0766666681 -0.00833333377 0
0.0733333305 -0.00833333377 0
0.0700000003 -0.00833333377 0
0.0666666701 -0.00833333377 0
0.0633333325 -0.00833333377 0
0.0599999987 -0.00833333377 0
0.0566666685 -0.00833333377 0
0.0533333346 -0.00833333377 0
0.0500000007 -0.00833333377 0
0.0466666669 -0.00833333377 0
0.043333333 -0.00833333377 0
0.0399999991 -0.00833333377 0
0.0366666652 -0.00833333377 0
0.0333333351 -0.00833333377 0
0.0299999993 -0.00833333377 0
0.0266666673 -0.00833333377 0
0.0233333334 -0.00833333377 0
0.0199999996 -0.00833333377 0
0.0166666675 -0.00833333377 0
0.0133333337 -0.00833333377 0
0.00999999978 -0.00833333377 0
0.00666666683 -0.00833333377 0
0.00333333341 -0.00833333377 0
0.0 -0.00833333377 0
0.100000001 -0.0116666667 0
0.0966666639 -0.0116666667 0
0.0933333337 -0.0116666667 0
0.0900000036 -0.0116666667 0
0.086666666 -0.0116666667 0
0.0833333358 -0.0116666667 0
0.0799999982 -0.0116666667 0
0.0766666681 -0.0116666667 0
0.0733333305 -0.0116666667 0
0.0700000003 -0.0116666667 0
0.0666666701 -0.0116666667 0
0.0633333325 -0.0116666667 0
0.0599999987 -0.0116666667 0
0.0566666685 -0.0116666667 0
0.0533333346 -0.0116666667 0
0.0500000007 -0.0116666667 0
0.0466666669 -0.0116666667 0
0.043333333 -0.0116666667 0
0.0399999991 -0.0116666667 0
0.0366666652 -0.0116666667 0
0.0333333351 -0.0116666667 0
0.0299999993 -0.0116666667 0
0.0266666673 -0.0116666667 0
0.0233333334 -0.0116666667 0
0.0199999996 -0.0116666667 0
0.0166666675 -0.0116666667 0
0.0133333337 -0.0116666667 0
0.00999999978 -0.0116666667 0
0.00666666683 -0.0116666667 0
0.00333333341 -0.0116666667 0
0.0 -0.0116666667 0
0.100000001 -0.0149999997 0
0.0966666639 -0.0149999997 0
0.0933333337 -0.0149999997 0
0.0900000036 -0.0149999997 0
0.086666666 -0.0149999997 0
0.0833333358 -0.0149999997 0
0.0799999982 -0.0149999997 0
0.0766666681 -0.0149999997 0
0.0733333305 -0.0149999997 0
0.0700000003 -0.0149999997 0
0.0666666701 -0.0149999997 0
0.0633333325 -0.0149999997 0
0.0599999987 -0.0149999997 0
0.0566666685 -0.0149999997 0
0.0533333346 -0.0149999997 0
0.0500000007 -0.0149999997 0
0.0466666669 -0.0149999997 0
0.043333333 -0.0149999997 0
0.0399999991 -0.0149999997 0
0.0366666652 -0.0149999997 0
0.0333333351 -0.0149999997 0
0.0299999993 -0.0149999997 0
0.0266666673 -0.0149999997 0
0.0233333334 -0.0149999997 0
0.0199999996 -0.0149999997 0
0.0166666675 -0.0149999997 0
0.0133333337 -0.0149999997 0
0.00999999978 -0.0149999997 0
0.00666666683 -0.0149999997 0
0.00333333341 -0.0149999997 0
0.0 -0.0149999997 0
0.100000001 -0.0183333326 0
0.0966666639 -0.0183333326 0
0.0933333337 -0.0183333326 0
0.0900000036 -0.0183333326 0
0.086666666 -0.0183333326 0
0.0833333358 -0.0183333326 0
0.0799999982 -0.0183333326 0
0.0766666681 -0.0183333326 0
0.0733333305 -0.0183333326 0
0.0700000003 -0.0183333326 0
0.0666666701 -0.0183333326 0
0.0633333325 -0.0183333326 0
0.0599999987 -0.0183333326 0
0.0566666685 -0.0183333326 0
0.0533333346 -0.0183333326 0
0.0500000007 -0.0183333326 0
0.0466666669 -0.0183333326 0
0.043333333 -0.0183333326 0
0.0399999991 -0.0183333326 0
0.0366666652 -0.0183333326 0
0.0333333351 -0.0183333326 0
0.0299999993 -0.0183333326 0
0.0266666673 -0.0183333326 0
0.0233333334 -0.0183333326 0
0.0199999996 -0.0183333326 0
0.0166666675 -0.0183333326 0
0.0133333337 -0.0183333326 0
0.00999999978 -0.0183333326 0
0.00666666683 -0.0183333326 0
0.00333333341 -0.0183333326 0
0.0 -0.0183333326 0
0.100000001 -0.0216666665 0
0.0966666639 -0.0216666665 0
0.0933333337 -0.0216666665 0
0.0900000036 -0.0216666665 0
0.086666666 -0.0216666665 0
0.0833333358 -0.0216666665 0
0.0799999982 -0.0216666665 0
0.0766666681 -0.0216666665 0
0.0733333305 -0.0216666665 0
0.0700000003 -0.0216666665 0
0.0666666701 -0.0216666665 0
0.0633333325 -0.0216666665 0
0.0599999987 -0.0216666665 0
0.0566666685 -0.0216666665 0
0.0533333346 -0.0216666665 0
0.0500000007 -0.0216666665 0
0.0466666669 -0.0216666665 0
0.043333333 -0.0216666665 0
0.0399999991 -0.0216666665 0
0.0366666652 -0.0216666665 0
0.0333333351 -0.0216666665 0
0.0299999993 -0.0216666665 0
0.0266666673 -0.0216666665 0
0.0233333334 -0.0216666665 0
0.0199999996 -0.0216666665 0
0.0166666675 -0.0216666665 0
0.0133333337 -0.0216666665 0
0.00999999978 -0.0216666665 0
0.00666666683 -0.0216666665 0
0.00333333341 -0.0216666665 0
0.0 -0.0216666665 0
0.100000001 -0.0250000004 0
0.0966666639 -0.0250000004 0
0.0933333337 -0.0250000004 0
0.0900000036 -0.0250000004 0
0.086666666 -0.0250000004 0
0.0833333358 -0.0250000004 0
0.0799999982 -0.0250000004 0
0.0766666681 -0.0250000004 0
0.0733333305 -0.0250000004 0
0.0700000003 -0.0250000004 0
0.0666666701 -0.0250000004 0
0.0633333325 -0.0250000004 0
0.0599999987 -0.0250000004 0
0.0566666685 -0.0250000004 0
0.0533333346 -0.0250000004 0
0.0500000007 -0.0250000004 0
0.0466666669 -0.0250000004 0
0.043333333 -0.0250000004 0
0.0399999991 -0.0250000004 0
0.0366666652 -0.0250000004 0
0.0333333351 -0.0250000004 0
0.0299999993 -0.0250000004 0
0.0266666673 -0.0250000004 0
0.0233333334 -0.0250000004 0
0.0199999996 -0.0250000004 0
0.0166666675 -0.0250000004 0
0.0133333337 -0.0250000004 0
0.00999999978 -0.0250000004 0
0.00666666683 -0.0250000004 0
0.00333333341 -0.0250000004 0
0.0 -0.0250000004 0
0.100000001 -0.0283333343 0
0.0966666639 -0.0283333343 0
0.0933333337 -0.0283333343 0
0.0900000036 -0.0283333343 0
0.086666666 -0.0283333343 0
0.0833333358 -0.0283333343 0
0.0799999982 -0.0283333343 0
0.0766666681 -0.0283333343 0
0.0733333305 -0.0283333343 0
0.0700000003 -0.0283333343 0
0.0666666701 -0.0283333343 0
0.0633333325 -0.0283333343 0
0.0599999987 -0.0283333343 0
0.0566666685 -0.0283333343 0
0.0533333346 -0.0283333343 0
0.0500000007 -0.0283333343 0
0.0466666669 -0.0283333343 0
0.043333333 -0.0283333343 0
0.0399999991 -0.0283333343 0
0.0366666652 -0.0283333343 0
0.0333333351 -0.0283333343 0
0.0299999993 -0.0283333343 0
0.0266666673 -0.0283333343 0
0.0233333334 -0.0283333343 0
0.0199999996 -0.0283333343 0
0.0166666675 -0.0283333343 0
0.0133333337 -0.0283333343 0
0.00999999978 -0.0283333343 0
0.00666666683 -0.0283333343 0
0.00333333341 -0.0283333343 0
0.0 -0.0283333343 0
[...]
POINT_DATA 961
SCALARS Temp float 1
LOOKUP_TABLE default
149.5569440457186
129.23999076568188
125.8539232922343
125.28574818439375
125.19036677887686
125.1743272171821
125.17162906403355
125.17117482154333
125.17109832741747
125.1710854399791
125.1710832682602
125.17108290218361
125.17108284046512
125.17108283005885
125.17108282831191
125.17108282806576
125.17108282831188
125.17108283005882
125.17108284046512
125.17108290218384
125.17108326825905
125.1710854399817
125.17109832745368
125.17117482152622
125.17162906528895
125.17432721251541
125.19036679692454
125.2857480074198
125.85392353534614
129.24000166561459
149.55694830253935
129.2399977576767
108.45601290414503
104.9666188534754
104.38089876185262
104.28239089292506
104.26582074971748
104.26303097842428
104.26256119338642
104.26248204379861
104.26246870612675
104.26246645783958
104.2624660787882
104.26246601486824
104.26246600408915
104.26246600227931
104.2624660020243
104.26246600227935
104.26246600408908
104.26246601486824
104.26246607878838
104.26246645783839
104.26246870612931
104.26248204383617
104.2625611933688
104.2630309797224
104.26582074489545
104.28239091156549
104.38089857933365
104.96661910400411
108.45602408020687
129.24000208883007
125.85391903674335
104.96660724563375
101.43748293136669
100.84241732108177
100.74213695856014
100.72523233895309
100.72238289677784
100.72190245060125
100.72182143794079
100.72180777463711
100.72180547002
100.72180508123016
100.72180501563575
100.72180500456889
100.72180500271016
100.72180500244805
100.72180500271013
100.72180500456894
100.72180501563575
100.72180508123041
100.72180547001877
100.72180777463984
100.72182143797907
100.7219024505832
100.72238289810421
100.72523233403213
100.74213697754826
100.84241713554607
101.43748318511537
104.96661849793863
125.8539233714881
125.28574339680907
104.38088658954482
100.84241676318709
100.24391007251927
100.1427797086006
100.125700242807
100.122816138422
100.12232921641014
100.1222470075102
100.12223312881656
100.1222307856521
100.12223039005154
100.12223032325852
100.12223031198249
100.12223031008739
100.12223030982013
100.12223031008739
100.12223031198252
100.12223032325865
100.12223039005171
100.12223078565076
100.12223312881929
100.12224700754909
100.12232921639183
100.12281613976499
100.12570023783285
100.14277972775983
100.24390988577952
100.8424170178409
104.38089785652033
125.28574773117829
125.19036218655617
104.28237891925384
100.7421366051916
100.14277991512367
100.04134691351287
100.02418973857522
100.02128863615893
100.02079819747179
100.02071530378332
100.02070129452981
100.02069892716716
100.02069852713257
100.02069845953933
100.02069844811983
100.02069844619938
100.02069844592842
100.02069844619942
100.02069844811976
100.02069845953939
100.02069852713281
100.02069892716582
100.02070129453251
100.02071530382263
100.02079819745329
100.02128863751031
100.02418973357665
100.04134693273801
100.14277972803788
100.74213686003112
104.28239018885547
125.1903665209397
125.17432260317116
104.26580875312735
100.72523196269212
100.12570042636052
100.0241897154211
100.0070055791654
100.00409733886585
100.00360526268898
100.00352201743054
100.00350793715407
100.00350555584441
100.00350515315309
100.00350508506163
100.00350507355029
100.00350507161323
100.00350507133977
100.00350507161323
100.00350507355031
100.00350508506163
100.00350515315333
100.00350555584308
100.00350793715681
100.00352201746999
100.00360526267045
100.00409734022085
100.00700557415773
100.0241897346654
100.1257002391936
100.72523221756735
104.26582002320181
125.17432693754277
125.17162445389097
104.26301898574451
100.72238252458827
100.1228163261201
100.02128861714962
100.00409734302555
100.00118667491579
100.00069394030439
100.00061053820059
100.00059642314515
100.00059403457718
100.00059363042088
100.00059356204315
100.00059355047698
100.00059354852957
100.00059354825454
100.00059354852957
100.00059355047695
100.00059356204322
100.00059363042106
100.00059403457581
100.00059642314793
100.00061053824014
100.0006939402859
100.0011866762722
100.00409733801536
100.02128863639844
100.12281613893602
100.72238277947005
104.26303025590101
125.17162878826218
125.17117021017012
104.26254919941871
100.7219020771095
100.12232940279492
100.02079817713668
100.00360526552079
100.00069393897445
100.00020098379723
100.00011752072281
100.00010339069769
100.00010099871537
100.0001005938256
100.00010052529619
100.00010051369962
100.00010051174631
100.00010051147038
100.00010051174635
100.00010051369955
100.0001005252962
100.00010059382593
100.00010099871409
100.00010339070039
100.00011752076239
100.00020098377867
100.0006939403312
100.0036052605098
100.02079819638647
100.12232921560752
100.72190233199248
104.26256046958956
125.17117454454106
125.17109371604664
104.26247004983067
100.72182106445099
100.1222471938981
100.02071528345063
100.00352202026501
100.00061053687318
100.00011752072545
100.00003403746504
100.00001990177473
100.00001750836677
100.00001710314379
100.00001703454079
100.00001702292863
100.00001702097224
100.00001702069581
100.00001702097227
100.00001702292874
100.00001703454087
100.00001710314405
100.00001750836536
100.00001990177745
100.00003403750466
100.00011752070688
100.00061053823005
100.0035220152539
100.0207153027006
100.12224700671008
100.72182131933423
104.26248132000399
125.17109805041753
125.17108082856326
104.2624567121117
100.72180740109968
100.12223331515632
100.02070127414834
100.00350793993967
100.0005964217686
100.00010339065113
100.00001990172552
100.00000576417654
100.0000033702406
100.00000296488199
100.00000289624663
100.00000288462715
100.00000288266921
100.00000288239247
100.00000288266922
100.00000288462715
100.00000289624663
100.00000296488217
100.00000337023921
100.00000576417929
100.00001990176513
100.00010339063265
100.00059642312557
100.00350793492842
100.02070129339833
100.12223312796809
100.72180765598296
104.26246798228556
125.17108516293409
125.17107865684264
104.2624544638227
100.72180509648084
100.12223097198992
100.02069890678378
100.00350555862815
100.00059403319874
100.00010099866692
100.00001750831575
100.00000337023869
100.00000097613068
100.00000057072279
100.00000050207454
100.00000049045195
100.00000048849327
100.00000048821636
100.0000004884932
100.0000004904519
100.00000050207457
100.00000057072292
100.0000009761294
100.00000337024142
100.00001750835527
100.00010099864846
100.00059403455559
100.00350555361698
100.02069892603373
100.12223078480177
100.72180535136401
104.2624657339965
125.17108299121358
125.17107829076713
104.26245408477239
100.72180470769212
100.12223057639054
100.02069850675038
100.00350515593792
100.00059362904352
100.00010059377857
100.00001710309395
100.00000296488129
100.00000057072403
100.00000016530002
100.00000009664723
100.0000000850234
100.00000008306436
100.00000008278748
100.0000000830644
100.00000008502342
100.00000009664721
100.0000001653003
100.00000057072266
100.00000296488402
100.00001710313347
100.00010059375997
100.00059363040054
100.00350515092673
100.0206985260004
100.12223038920237
100.7218049625754
104.26246535494627
125.17108262513798
125.17107822904852
104.26245402085233
100.72180464209751
100.12223050959751
100.02069843915699
100.00350508784636
100.00059356066573
100.0001005252489
100.00001703449087
100.00000289624577
100.0000005020756
100.00000009664704
100.00000002799274
100.00000001636853
100.00000001440935
100.00000001413241
100.00000001440935
100.0000000163685
100.00000002799273
100.0000000966473
100.00000050207429
100.00000289624857
100.00001703453042
100.00010052523031
100.00059356202266
100.00350508283523
100.020698458407
100.12223032240934
100.72180489698084
104.26246529102625
125.1710825634194
125.1710782186422
104.26245401007323
100.72180463103075
100.12223049832133
100.0206984277374
100.00350507633502
100.00059354909952
100.00010051365231
100.00001702287864
100.00000288462634
100.00000049045302
100.00000008502326
100.00000001636845
100.0000000047441
100.0000000027849
100.00000000250799
100.00000000278493
100.00000000474402
100.0000000163685
100.00000008502349
100.00000049045174
100.00000288462907
100.00001702291826
100.00010051363375
100.00059355045644
100.00350507132393
100.02069844698744
100.12223031113317
100.72180488591401
104.26246528024708
125.17108255301311
125.17107821689528
104.26245400826345
100.72180462917183
100.12223049642623
100.020698425817
100.0035050743979
100.00059354715216
100.00010051169902
100.00001702092231
100.00000288266835
100.0000004884943
100.00000008306426
100.00000001440934
100.00000000278493
100.00000000082575
100.0000000005488
100.00000000082574
100.00000000278496
100.00000001440934
100.00000008306439
100.00000048849299
100.0000028826711
100.00001702096179
100.0001005116804
100.00059354850909
100.00350506938676
100.02069844506697
100.12223030923803
100.72180488405516
104.26246527843728
125.17108255126617
125.17107821664916
104.26245400800838
100.72180462890985
100.122230496159
100.02069842554602
100.00350507412448
100.0005935468772
100.00010051142307
100.00001702064577
100.00000288239166
100.00000048821747
100.00000008278734
100.00000001413243
100.00000000250793
100.00000000054878
100.00000000027185
100.0000000005488
100.00000000250803
100.0000000141325
100.00000008278752
100.00000048821605
100.0000028823944
100.00001702068532
100.00010051140455
100.00059354823406
100.00350506911329
100.02069844479607
100.12223030897077
100.7218048837931
104.26246527818216
125.17108255102002
125.1710782168953
104.26245400826339
100.72180462917187
100.12223049642623
100.02069842581699
100.00350507439788
100.00059354715218
100.00010051169902
100.00001702092227
100.00000288266838
100.0000004884943
100.00000008306424
100.00000001440927
100.00000000278496
100.00000000082571
100.00000000054877
100.00000000082574
100.00000000278487
100.00000001440932
100.0000000830644
100.00000048849297
100.00000288267104
100.0000170209619
100.00010051168039
100.00059354850912
100.0035050693868
100.02069844506701
100.1222303092381
100.72180488405512
104.26246527843723
125.17108255126614
125.17107821864218
104.26245401007317
100.72180463103066
100.12223049832133
100.02069842773743
100.00350507633502
100.00059354909949
100.00010051365226
100.00001702287871
100.00000288462637
100.00000049045306
100.00000008502329
100.00000001636842
100.00000000474408
100.00000000278489
100.00000000250803
100.00000000278492
100.00000000474412
100.00000001636846
100.00000008502342
100.00000049045163
100.00000288462911
100.0000170229182
100.00010051363373
100.00059355045637
100.00350507132389
100.02069844698748
100.12223031113317
100.72180488591397
104.26246528024707
125.17108255301305
125.17107822904853
104.26245402085237
100.72180464209752
100.12223050959751
100.02069843915699
100.00350508784635
100.00059356066576
100.00010052524891
100.00001703449085
100.0000028962458
100.00000050207558
100.00000009664711
100.00000002799278
100.00000001636856
100.00000001440935
100.0000000141325
100.00000001440938
100.00000001636845
100.00000002799274
100.00000009664727
100.00000050207427
100.00000289624857
100.0000170345305
100.00010052523032
100.00059356202263
100.0035050828352
100.02069845840705
100.12223032240938
100.72180489698084
104.26246529102622
125.1710825634194
125.17107829076723
104.26245408477244
100.72180470769223
100.1222305763906
100.02069850675039
100.00350515593792
100.0005936290436
100.00010059377857
100.00001710309401
100.0000029648813
100.00000057072407
100.00000016530012
100.00000009664731
100.00000008502347
100.00000008306446
100.00000008278754
100.00000008306442
100.00000008502343
100.0000000966473
100.00000016530032
100.00000057072273
100.00000296488412
100.00001710313357
100.00010059376002
100.00059363040052
100.00350515092683
100.02069852600047
100.12223038920243
100.72180496257548
104.26246535494631
125.17108262513801
125.17107865684363
104.26245446382373
100.72180509648176
100.12223097199093
100.0206989067848
100.00350555862912
100.00059403319973
100.00010099866803
100.00001750831669
100.00000337023972
100.0000009761317
100.0000005707238
100.0000005020756
100.00000049045303
100.00000048849432
100.00000048821742
100.00000048849428
100.00000049045296
100.00000050207564
100.00000057072403
100.00000097613038
100.00000337024245
100.00001750835628
100.00010099864943
100.00059403455658
100.00350555361803
100.02069892603473
100.12223078480272
100.72180535136509
104.26246573399749
125.17108299121446
125.17108082856195
104.26245671211046
100.72180740109845
100.12223331515482
100.02070127414679
100.00350793993823
100.00059642176717
100.00010339064973
100.00001990172414
100.00000576417513
100.00000337023916
100.00000296488058
100.00000289624522
100.00000288462581
100.00000288266776
100.0000028823911
100.00000288266777
100.00000288462587
100.00000289624529
100.00000296488079
100.00000337023786
100.00000576417787
100.00001990176372
100.0001033906312
100.00059642312412
100.00350793492706
100.02070129339688
100.12223312796667
100.72180765598169
104.26246798228415
125.17108516293281
125.17109371607735
104.26247004986243
100.72182106448356
100.12224719393109
100.02071528348402
100.0035220202986
100.00061053690679
100.00011752075909
100.0000340374987
100.00001990180832
100.0000175084004
100.00001710317748
100.00001703457451
100.00001702296237
100.0000170210059
100.00001702072944
100.00001702100593
100.00001702296234
100.00001703457451
100.00001710317765
100.00001750839908
100.00001990181113
100.0000340375383
100.00011752074059
100.00061053826366
100.00352201528752
100.02071530273398
100.1222470067432
100.7218213193669
104.26248132003583
125.1710980504482
125.1711702101244
104.26254919937148
100.72190207706112
100.12232940274598
100.02079817708737
100.00360526547126
100.00069393892481
100.0002009837476
100.00011752067313
100.00010339064801
100.00010099866577
100.00010059377607
100.00010052524655
100.00010051364997
100.00010051169666
100.00010051142074
100.00010051169667
100.00010051364995
100.00010052524662
100.00010059377627
100.0001009986644
100.00010339065074
100.0001175207127
100.00020098372902
100.00069394028161
100.00360526046025
100.02079819633711
100.12232921555861
100.72190233194416
104.26256046954231
125.17117454449537
125.1716244553566
104.26301898725995
100.72238252613667
100.12281632768794
100.02128861872735
100.00409734460757
100.00118667649934
100.00069394188839
100.00061053978473
100.00059642472934
100.00059403616132
100.00059363200502
100.00059356362729
100.0005935520611
100.00059355011369
100.00059354983871
100.00059355011368
100.00059355206112
100.00059356362736
100.00059363200515
100.00059403615995
100.00059642473204
100.00061053982424
100.00069394186986
100.00118667785573
100.00409733959728
100.02128863797617
100.1228161405039
100.7223827810185
104.26303025741643
125.1716287897277
125.1743226056967
104.26580875573731
100.72523196535575
100.1257004290533
100.02418971812718
100.00700558187636
100.00409734157829
100.00360526540177
100.00352202014342
100.00350793986705
100.00350555855734
100.00350515586602
100.0035050877746
100.00350507626322
100.0035050743261
100.00350507405264
100.00350507432604
100.00350507626322
100.00350508777453
100.00350515586624
100.003505558556
100.00350793986972
100.00352202018288
100.00360526538329
100.00409734293335
100.00700557686882
100.02418973737146
100.12570024188635
100.72523222023091
104.26582002581183
125.17432694006838
125.1903621636784
104.28237889562371
100.74213658112322
100.14277989083908
100.04134688914561
100.02418971418392
100.02128861176176
100.02079817307342
100.02071527938467
100.02070127013116
100.02069890276852
100.0206985027339
100.02069843514064
100.02069842372113
100.02069842180067
100.02069842152973
100.02069842180066
100.02069842372107
100.02069843514066
100.02069850273408
100.02069890276715
100.02070127013388
100.02071527942402
100.02079817305496
100.02128861311323
100.02418970918544
100.04134690837085
100.14277970375329
100.74213683596274
104.2823901652253
125.19036649806193
125.28574354995766
104.38088674750979
100.84241692376155
100.24391023414653
100.14277987052873
100.12570040480274
100.12281630043172
100.1223293784226
100.1222471695231
100.12223329082958
100.12223094766512
100.12223055206461
100.12223048527169
100.12223047399549
100.1222304721004
100.12223047183316
100.12223047210036
100.12223047399553
100.12223048527167
100.12223055206476
100.12223094766375
100.12223329083224
100.12224716956206
100.1223293784043
100.12281630177472
100.12570039982865
100.14277988968796
100.2439100474068
100.84241717841539
104.38089801448531
125.2857478843269
125.85391854325039
104.9666067369483
101.43748241638542
100.84241680431407
100.74213644137404
100.72523182168104
100.7223823794897
100.72190193331011
100.72182092064895
100.72180725734528
100.72180495272823
100.72180456393836
100.7218044983439
100.72180448727708
100.72180448541825
100.72180448515623
100.7218044854183
100.72180448727705
100.72180449834387
100.72180456393858
100.72180495272693
100.72180725734785
100.72182092068734
100.72190193329203
100.7223823808161
100.72523181676013
100.74213646036216
100.84241661877843
101.43748267013413
104.96661798925322
125.85392287799512
129.2400067068549
108.45602207927756
104.96662809103086
104.38090801159271
104.28240014486708
104.26583000205518
104.26304023083077
104.26257044580497
104.26249129621924
104.2624779585476
104.26247571026055
104.26247533120916
104.26247526728919
104.26247525651013
104.26247525470035
104.26247525444526
104.26247525470032
104.26247525651013
104.26247526728926
104.26247533120939
104.26247571025932
104.26247795855014
104.2624912962567
104.26257044578726
104.26304023212886
104.26582999723314
104.28240016350762
104.38090782907375
104.9666283415596
108.4560332553393
129.2400110380082
149.55694755129548
129.2399943319116
125.85392686075743
125.28575175242311
125.19037034690771
125.17433078520436
125.17163263205558
125.17117838956514
125.17110189543939
125.17108900800108
125.17108683628206
125.17108647020545
125.171086408487
125.17108639808067
125.17108639633376
125.1710863960876
125.17108639633378
125.17108639808066
125.171086408487
125.17108647020562
125.17108683628086
125.17108900800365
125.17110189547557
125.1711783895481
125.17163263331099
125.17433078053764
125.19037036495546
125.28575157544918
125.8539271038693
129.2400052318442
149.55695180811625
