# vtk DataFile Version 2.0
Unstructured Grid Example
ASCII
DATASET UNSTRUCTURED_GRID

POINTS 961 float
0.100000001 0.00499999989 0
0.0966666639 0.00499999989 0
0.0933333337 0.00499999989 0
0.0900000036 0.00499999989 0
0.086666666 0.00499999989 0
0.0833333358 0.00499999989 0
0.0799999982 0.00499999989 0
0.0766666681 0.00499999989 0
0.0733333305 0.00499999989 0
0.0700000003 0.00499999989 0
0.0666666701 0.00499999989 0
0.0633333325 0.00499999989 0
0.0599999987 0.00499999989 0
0.0566666685 0.00499999989 0
0.0533333346 0.00499999989 0
0.0500000007 0.00499999989 0
0.0466666669 0.00499999989 0
0.043333333 0.00499999989 0
0.0399999991 0.00499999989 0
0.0366666652 0.00499999989 0
0.0333333351 0.00499999989 0
0.0299999993 0.00499999989 0
0.0266666673 0.00499999989 0
0.0233333334 0.00499999989 0
0.0199999996 0.00499999989 0
0.0166666675 0.00499999989 0
0.0133333337 0.00499999989 0
0.00999999978 0.00499999989 0
0.00666666683 0.00499999989 0
0.00333333341 0.00499999989 0
0.0 0.00499999989 0
0.100000001 0.00166666671 0
0.0966666639 0.00166666671 0
0.0933333337 0.00166666671 0
0.0900000036 0.00166666671 0
0.086666666 0.00166666671 0
0.0833333358 0.00166666671 0
0.0799999982 0.00166666671 0
0.0766666681 0.00166666671 0
0.0733333305 0.00166666671 0
0.0700000003 0.00166666671 0
0.0666666701 0.00166666671 0
0.0633333325 0.00166666671 0
0.0599999987 0.00166666671 0
0.0566666685 0.00166666671 0
0.0533333346 0.00166666671 0
0.0500000007 0.00166666671 0
0.0466666669 0.00166666671 0
0.043333333 0.00166666671 0
0.0399999991 0.00166666671 0
0.0366666652 0.00166666671 0
0.0333333351 0.00166666671 0
0.0299999993 0.00166666671 0
0.0266666673 0.00166666671 0
0.0233333334 0.00166666671 0
0.0199999996 0.00166666671 0
0.0166666675 0.00166666671 0
0.0133333337 0.00166666671 0
0.00999999978 0.00166666671 0
0.00666666683 0.00166666671 0
0.00333333341 0.00166666671 0
0.0 0.00166666671 0
0.100000001 -0.00166666671 0
0.0966666639 -0.00166666671 0
0.0933333337 -0.00166666671 0
0.0900000036 -0.00166666671 0
0.086666666 -0.00166666671 0
0.0833333358 -0.00166666671 0
0.0799999982 -0.00166666671 0
0.0766666681 -0.00166666671 0
0.0733333305 -0.00166666671 0
0.0700000003 -0.00166666671 0
0.0666666701 -0.00166666671 0
0.0633333325 -0.00166666671 0
0.0599999987 -0.00166666671 0
0.0566666685 -0.00166666671 0
0.0533333346 -0.00166666671 0
0.0500000007 -0.00166666671 0
0.0466666669 -0.00166666671 0
0.043333333 -0.00166666671 0
0.0399999991 -0.00166666671 0
0.0366666652 -0.00166666671 0
0.0333333351 -0.00166666671 0
0.0299999993 -0.00166666671 0
0.0266666673 -0.00166666671 0
0.0233333334 -0.00166666671 0
0.0199999996 -0.00166666671 0
0.0166666675 -0.00166666671 0
0.0133333337 -0.00166666671 0
0.00999999978 -0.00166666671 0
0.00666666683 -0.00166666671 0
0.00333333341 -0.00166666671 0
0.0 -0.00166666671 0
0.100000001 -0.00499999989 0
0.0966666639 -0.00499999989 0
0.0933333337 -0.00499999989 0
0.0900000036 -0.00499999989 0
0.086666666 -0.00499999989 0
0.0833333358 -0.00499999989 0
0.0799999982 -0.00499999989 0
0.0766666681 -0.00499999989 0
0.0733333305 -0.00499999989 0
0.0700000003 -0.00499999989 0
0.0666666701 -0.00499999989 0
0.0633333325 -0.00499999989 0
0.0599999987 -0.00499999989 0
0.0566666685 -0.00499999989 0
0.0533333346 -0.00499999989 0
0.0500000007 -0.00499999989 0
0.0466666669 -0.00499999989 0
0.043333333 -0.00499999989 0
0.0399999991 -0.00499999989 0
0.0366666652 -0.00499999989 0
0.0333333351 -0.00499999989 0
0.0299999993 -0.00499999989 0
0.0266666673 -0.00499999989 0
0.0233333334 -0.00499999989 0
0.0199999996 -0.00499999989 0
0.0166666675 -0.00499999989 0
0.0133333337 -0.00499999989 0
0.00999999978 -0.00499999989 0
0.00666666683 -0.00499999989 0
0.00333333341 -0.00499999989 0
0.0 -0.00499999989 0
0.100000001 -0.00833333377 0
0.0966666639 -0.00833333377 0
0.0933333337 -0.00833333377 0
0.0900000036 -0.00833333377 0
0.086666666 -0.00833333377 0
0.0833333358 -0.00833333377 0
0.0799999982 -0.00833333377 0
0.0766666681 -0.00833333377 0
0.0733333305 -0.00833333377 0
0.0700000003 -0.00833333377 0
0.0666666701 -0.00833333377 0
0.0633333325 -0.00833333377 0
0.0599999987 -0.00833333377 0
0.0566666685 -0.00833333377 0
0.0533333346 -0.00833333377 0
0.0500000007 -0.00833333377 0
0.0466666669 -0.00833333377 0
0.043333333 -0.00833333377 0
0.0399999991 -0.00833333377 0
0.0366666652 -0.00833333377 0
0.0333333351 -0.00833333377 0
0.0299999993 -0.00833333377 0
0.0266666673 -0.00833333377 0
0.0233333334 -0.00833333377 0
0.0199999996 -0.00833333377 0
0.0166666675 -0.00833333377 0
0.0133333337 -0.00833333377 0
0.00999999978 -0.00833333377 0
0.00666666683 -0.00833333377 0
0.00333333341 -0.00833333377 0
0.0 -0.00833333377 0
0.100000001 -0.0116666667 0
0.0966666639 -0.0116666667 0
0.0933333337 -0.0116666667 0
0.0900000036 -0.0116666667 0
0.086666666 -0.0116666667 0
0.0833333358 -0.0116666667 0
0.0799999982 -0.0116666667 0
0.0766666681 -0.0116666667 0
0.0733333305 -0.0116666667 0
0.0700000003 -0.0116666667 0
0.0666666701 -0.0116666667 0
0.0633333325 -0.0116666667 0
0.0599999987 -0.0116666667 0
0.0566666685 -0.0116666667 0
0.0533333346 -0.0116666667 0
0.0500000007 -0.0116666667 0
0.0466666669 -0.0116666667 0
0.043333333 -0.0116666667 0
0.0399999991 -0.0116666667 0
0.0366666652 -0.0116666667 0
0.0333333351 -0.0116666667 0
0.0299999993 -0.0116666667 0
0.0266666673 -0.0116666667 0
0.0233333334 -0.0116666667 0
0.0199999996 -0.0116666667 0
0.0166666675 -0.0116666667 0
0.0133333337 -0.0116666667 0
0.00999999978 -0.0116666667 0
0.00666666683 -0.0116666667 0
0.00333333341 -0.0116666667 0
0.0 -0.0116666667 0
0.100000001 -0.0149999997 0
0.0966666639 -0.0149999997 0
0.0933333337 -0.0149999997 0
0.0900000036 -0.0149999997 0
0.086666666 -0.0149999997 0
0.0833333358 -0.0149999997 0
0.0799999982 -0.0149999997 0
0.0766666681 -0.0149999997 0
0.0733333305 -0.0149999997 0
0.0700000003 -0.0149999997 0
0.0666666701 -0.0149999997 0
0.0633333325 -0.0149999997 0
0.0599999987 -0.0149999997 0
0.0566666685 -0.0149999997 0
0.0533333346 -0.0149999997 0
0.0500000007 -0.0149999997 0
0.0466666669 -0.0149999997 0
0.043333333 -0.0149999997 0
0.0399999991 -0.0149999997 0
0.0366666652 -0.0149999997 0
0.0333333351 -0.0149999997 0
0.0299999993 -0.0149999997 0
0.0266666673 -0.0149999997 0
0.0233333334 -0.0149999997 0
0.0199999996 -0.0149999997 0
0.0166666675 -0.0149999997 0
0.0133333337 -0.0149999997 0
0.00999999978 -0.0149999997 0
0.00666666683 -0.0149999997 0
0.00333333341 -0.0149999997 0
0.0 -0.0149999997 0
0.100000001 -0.0183333326 0
0.0966666639 -0.0183333326 0
0.0933333337 -0.0183333326 0
0.0900000036 -0.0183333326 0
0.086666666 -0.0183333326 0
0.0833333358 -0.0183333326 0
0.0799999982 -0.0183333326 0
0.0766666681 -0.0183333326 0
0.0733333305 -0.0183333326 0
0.0700000003 -0.0183333326 0
0.0666666701 -0.0183333326 0
0.0633333325 -0.0183333326 0
0.0599999987 -0.0183333326 0
0.0566666685 -0.0183333326 0
0.0533333346 -0.0183333326 0
0.0500000007 -0.0183333326 0
0.0466666669 -0.0183333326 0
0.043333333 -0.0183333326 0
0.0399999991 -0.0183333326 0
0.0366666652 -0.0183333326 0
0.0333333351 -0.0183333326 0
0.0299999993 -0.0183333326 0
0.0266666673 -0.0183333326 0
0.0233333334 -0.0183333326 0
0.0199999996 -0.0183333326 0
0.0166666675 -0.0183333326 0
0.0133333337 -0.0183333326 0
0.00999999978 -0.0183333326 0
0.00666666683 -0.0183333326 0
0.00333333341 -0.0183333326 0
0.0 -0.0183333326 0
0.100000001 -0.0216666665 0
0.0966666639 -0.0216666665 0
0.0933333337 -0.0216666665 0
0.0900000036 -0.0216666665 0
0.086666666 -0.0216666665 0
0.0833333358 -0.0216666665 0
0.0799999982 -0.0216666665 0
0.0766666681 -0.0216666665 0
0.0733333305 -0.0216666665 0
0.0700000003 -0.0216666665 0
0.0666666701 -0.0216666665 0
0.0633333325 -0.0216666665 0
0.0599999987 -0.0216666665 0
0.0566666685 -0.0216666665 0
0.0533333346 -0.0216666665 0
0.0500000007 -0.0216666665 0
0.0466666669 -0.0216666665 0
0.043333333 -0.0216666665 0
0.0399999991 -0.0216666665 0
0.0366666652 -0.0216666665 0
0.0333333351 -0.0216666665 0
0.0299999993 -0.0216666665 0
0.0266666673 -0.0216666665 0
0.0233333334 -0.0216666665 0
0.0199999996 -0.0216666665 0
0.0166666675 -0.0216666665 0
0.0133333337 -0.0216666665 0
0.00999999978 -0.0216666665 0
0.00666666683 -0.0216666665 0
0.00333333341 -0.0216666665 0
0.0 -0.0216666665 0
0.100000001 -0.0250000004 0
0.0966666639 -0.0250000004 0
0.0933333337 -0.0250000004 0
0.0900000036 -0.0250000004 0
0.086666666 -0.0250000004 0
0.0833333358 -0.0250000004 0
0.0799999982 -0.0250000004 0
0.0766666681 -0.0250000004 0
0.0733333305 -0.0250000004 0
0.0700000003 -0.0250000004 0
0.0666666701 -0.0250000004 0
0.0633333325 -0.0250000004 0
0.0599999987 -0.0250000004 0
0.0566666685 -0.0250000004 0
0.0533333346 -0.0250000004 0
0.0500000007 -0.0250000004 0
0.0466666669 -0.0250000004 0
0.043333333 -0.0250000004 0
0.0399999991 -0.0250000004 0
0.0366666652 -0.0250000004 0
0.0333333351 -0.0250000004 0
0.0299999993 -0.0250000004 0
0.0266666673 -0.0250000004 0
0.0233333334 -0.0250000004 0
0.0199999996 -0.0250000004 0
0.0166666675 -0.0250000004 0
0.0133333337 -0.0250000004 0
0.00999999978 -0.0250000004 0
0.00666666683 -0.0250000004 0
0.00333333341 -0.0250000004 0
0.0 -0.0250000004 0
0.100000001 -0.0283333343 0
0.0966666639 -0.0283333343 0
0.0933333337 -0.0283333343 0
0.0900000036 -0.0283333343 0
0.086666666 -0.0283333343 0
0.0833333358 -0.0283333343 0
0.0799999982 -0.0283333343 0
0.0766666681 -0.0283333343 0
0.0733333305 -0.0283333343 0
0.0700000003 -0.0283333343 0
0.0666666701 -0.0283333343 0
0.0633333325 -0.0283333343 0
0.0599999987 -0.0283333343 0
0.0566666685 -0.0283333343 0
0.0533333346 -0.0283333343 0
0.0500000007 -0.0283333343 0
0.0466666669 -0.0283333343 0
0.043333333 -0.0283333343 0
0.0399999991 -0.0283333343 0
0.0366666652 -0.0283333343 0
0.0333333351 -0.0283333343 0
0.0299999993 -0.0283333343 0
0.0266666673 -0.0283333343 0
0.0233333334 -0.0283333343 0
0.0199999996 -0.0283333343 0
0.0166666675 -0.0283333343 0
0.0133333337 -0.0283333343 0
0.00999999978 -0.0283333343 0
0.00666666683 -0.0283333343 0
0.00333333341 -0.0283333343 0
0.0 -0.0283333343 0
[...]
POINT_DATA 961
SCALARS Temp float 1
LOOKUP_TABLE default
305.9971215275232
274.3175401165344
250.58535060763788
233.9329434923743
223.00509662588235
216.2991087142117
212.4466871567689
210.37076105470163
209.31865635412308
208.815595720088
208.58789961972101
208.49000854348614
208.44991379026888
208.43427124513917
208.42861024419526
208.42721757888944
208.42861024379005
208.43427124389248
208.449913815209
208.49000860905673
208.58789943656117
208.81559586333427
209.31865707083003
210.37076087439968
212.4466899210183
216.29910528496455
223.0051000161875
233.9329338637716
250.58535341065544
274.31757053429294
305.9971212832762
274.3175726981623
241.51501863254077
216.94079768161572
199.69682135593098
188.38016994748895
181.43515710631803
177.44514328922435
175.29491078089646
174.20505927393953
173.68390687081248
173.448002141894
173.3465734376038
173.3050262511037
173.28881574507494
173.2829487760288
173.28150537162108
173.282948775609
173.28881574378298
173.305026276948
173.34657350554616
173.4480019521226
173.6839070192161
174.2050600163853
175.29491059412254
177.44514615229605
181.435153554689
188.38017345851358
199.69681138498842
216.94080058413843
241.5150501290306
274.3175724452982
250.58535506549458
216.9407676933037
191.7336108372351
174.04349320180745
162.43241523746866
155.30552865307172
151.21025793101333
149.00285098614484
147.88377780270866
147.3485315035962
147.10619139459848
147.00197170326146
146.95927150091055
146.94260742547405
146.93657509789443
146.9350908165952
146.93657509746254
146.94260742414585
146.95927152747444
147.0019717730793
147.10619119962715
147.3485316560301
147.88377856513102
149.0028507943543
151.2102608698762
155.30552500801625
162.43241884010163
174.0434829721047
191.7336138146596
216.9407999996323
250.5853548062522
233.93293415109537
199.69677646785954
174.0434784581452
156.03749327118726
144.21681784447506
136.95962751608758
132.78840389867304
130.53942012531627
129.3989239869762
128.85325870171903
128.6061210377818
128.49980321812262
128.45622910909796
128.43921855393077
128.43305902863872
128.4315431608228
128.4330590281976
128.43921855257446
128.456229136209
128.49980328935456
128.6061208389168
128.85325885714462
129.39892476409372
130.53941992984167
132.78840689241278
136.95962380380334
144.21682151250536
156.03748285773437
174.043481488467
199.69680934406458
233.9329338874514
223.0051004126792
188.38013825264153
162.43241438672328
144.21683216310538
132.25613102779366
124.91119618775437
120.68837122831394
118.41086834596808
117.25552832499281
116.70256845431064
116.4520365349683
116.34421875638712
116.30001348076165
116.28275023066274
116.27649713255806
116.27495789712574
116.2764971321102
116.2827502292859
116.30001350826929
116.34421882863401
116.45203633333367
116.7025686118411
117.25552911233589
118.41086814793553
120.68837425949432
124.9111924299534
132.25613473966598
144.21682162727296
162.4324174520376
188.3801715041483
223.00510014620875
216.2991069596739
181.43511942511452
155.3055218790419
136.95963591255716
124.91119008833441
117.51075859058884
113.2549546639292
110.95901753051437
109.79396747453433
109.23617679894554
108.98336887169313
108.87453273738461
108.8298936958967
108.81245474508938
108.80613591082505
108.8045801490859
108.80613591037232
108.81245474369817
108.82989372367825
108.8745328103237
108.98336866818923
109.23617695787868
109.79396826860041
110.95901733080458
113.25495771915811
117.51075480381577
124.91119382779195
136.9596253003158
155.30552496603354
181.4351529078915
216.29910669151522
212.44669021604847
177.44511045098403
151.21025625459336
132.78841755134903
120.68837038822741
113.25495999184028
108.97932663333305
106.6721626246441
105.50111816338439
104.94030303163727
104.6860496528756
104.57655747620619
104.53163503836714
104.51407973679201
104.50771684957371
104.5061499269936
104.50771684911773
104.51407973539125
104.53163506632873
104.57655754959345
104.68604944817562
104.94030319145482
105.50111896162502
106.67216242389628
108.97932970310399
113.25495618772722
120.688374143982
132.78840689435637
151.21025935417086
177.44514406724284
212.44668994695078
210.3707615582278
175.2948752182082
149.0028465817723
130.53943103418294
118.4108646935359
110.95902003906033
106.67215977771787
104.35854968913928
103.18401167456932
102.62140626261628
102.36628357195549
102.25639049491866
102.21129212215821
102.19366348447211
102.18727245574281
102.18569834149628
102.18727245528478
102.1936634830652
102.2112921502322
102.25639056858176
102.36628336653014
102.6214064229614
103.18401247525871
104.35854948778477
106.67216285577346
110.9590162251792
118.41086845834259
130.53942035256728
149.00284968821103
175.2949089067613
210.37076128864263
209.31865754138073
174.20502438017738
147.88377412027987
129.3989356499355
117.25552541891179
109.79397074397038
105.50111607387522
103.1840124385092
102.00755050661978
101.44394251448666
101.18832453931978
101.07819904082531
101.03299689061086
101.01532426670344
101.00891610816582
101.00733757455984
101.00891610770647
101.01532426529285
101.03299691875169
101.07819911464927
101.18832433347737
101.44394267512988
102.00755130866729
103.18401223681964
105.50111915638362
109.79396692490178
117.25552918845477
129.39892495556433
147.88377723023876
174.2050581055666
209.31865727155892
208.81559603664485
173.68387105614914
147.34852689227023
128.8532694267148
116.7025645892015
109.23617910516714
104.94029997002289
102.62140605356454
101.44394153913333
100.87980177251478
100.6239162492952
100.51366284314743
100.46840251101337
100.45070477905367
100.4442866857857
100.4427055627945
100.4442866853257
100.45070477764104
100.46840253919203
100.51366291706049
100.62391604322526
100.8798019333175
101.4439423418938
102.62140585169996
104.94030305479355
109.23617528349585
116.70256836108472
128.85325872610568
147.3485300039334
173.68390479924918
208.81559576671495
208.58789974976204
173.44796612537195
147.10618658352527
128.60613156313465
116.45203246339737
108.98337097143823
104.68604638174914
102.36628315366661
101.1883233539538
100.62391603948608
100.3678933199855
100.25757303346683
100.21228167774353
100.19457030044816
100.18814671632768
100.18656414670248
100.18814671586715
100.1945702990343
100.21228170594247
100.25757310742695
100.36789311379756
100.6239162003697
101.18832415706916
102.36628295171533
104.68604946760857
108.98336714853015
116.45203623637548
128.6061208596375
147.1061896959703
173.44799987653315
208.5878994797857
208.49000886281576
173.34653761348352
147.00196709316754
128.49981395027004
116.34421489271828
108.87453504781615
104.57655441618259
102.25639028895148
101.07819806804875
100.51366284637126
100.2575732466824
100.14721969643452
100.1019125946032
100.08419415310388
100.0777676761538
100.07618433582383
100.07776767569305
100.08419415168932
100.10191262281249
100.14721977041815
100.25757304043623
100.51366300729393
101.0781988713319
102.25639008695921
104.57655750253988
108.87453122434995
116.344218666183
128.49980324550313
147.00197020595286
173.3465713681297
208.49000859282054
208.4499140812517
173.3049903960801
146.95926686042108
128.4562398109877
116.30000958566033
108.82989597496076
104.53163194642856
102.21129188436133
101.0329958858617
100.4684024823203
100.21228185905035
100.10191256265624
100.05659785191207
100.0388759272877
100.03244799834445
100.03086426677932
100.0324479978836
100.03887592587273
100.0565978801264
100.101912636651
100.21228165277695
100.4684026432609
101.03299668922033
102.21129168235088
104.53163503300229
108.82989215125501
116.30001335933102
128.4562291056891
146.95926997334757
173.30502415216168
208.44991381124925
208.43427151432107
173.2887798668588
146.94260276167685
128.439229232328
116.28274631142324
108.81245699991855
104.51407662031124
102.19366322211572
101.01532323730206
100.45070472571383
100.19457045710196
100.08419409648143
100.03887590260952
100.02115235171645
100.01472373294526
100.01313981345783
100.01472373248436
100.02115235030138
100.03887593082604
100.08419417048127
100.19457025081638
100.45070488666227
101.01532404069306
102.19366302009743
104.51407970697453
108.81245317611496
116.28275008517686
128.43921852681748
146.94260587465922
173.28881362350333
208.4342712443159
208.4286105162253
173.28291290054574
146.93657043709996
128.43306971021073
116.27649321642973
108.80613816885167
104.5077137362556
102.18727219659405
101.00891508196699
100.44428663566842
100.1881468762114
100.07776762275746
100.03244797689382
100.01472373617393
100.00829482030393
100.00671081910619
100.00829481984303
100.0147237347588
100.03244800511139
100.07776769675934
100.18814666992098
100.44428679662008
101.00891588537075
102.18727199457273
104.507716822953
108.8061343450112
116.27649699021411
128.4330590046221
146.9365735501027
173.28294665739486
208.42861024621928
208.42721785287716
173.2814694981131
146.9350861578793
128.4315538445447
116.27495398315281
108.80458240930464
104.50614681586895
102.18569808455892
101.00733655057536
100.44270551489916
100.18656430881157
100.07618428465226
100.03086424755432
100.01313981891255
100.00671082133233
100.00512679752849
100.00671082087142
100.01313981749743
100.0308642757721
100.07618435865479
100.18656410251982
100.44270567585158
101.00733735398235
102.18569788253696
104.50614990257503
108.80457858545478
116.27495775694496
128.43154313893663
146.9350892708871
173.28150325501286
208.42721758287104
208.42861051727738
173.28291290163617
146.93657043822108
128.43306971135553
116.27649321759199
108.80613817002619
104.50771373743828
102.18727219778195
101.0089150831582
100.4442866368615
100.18814687740554
100.07776762395208
100.03244797808878
100.01472373736893
100.00829482149904
100.00671082030128
100.00829482103816
100.01472373595392
100.03244800630634
100.07776769795403
100.1881466711151
100.44428679781315
101.00891588656195
102.18727199576074
104.50771682413571
108.80613434618573
116.27649699137639
128.43305900576695
146.93657355122374
173.28294665848532
208.4286102472714
208.43427151721417
173.2887798698569
146.94260276475902
128.43922923547447
116.2827463146168
108.81245700314487
104.51407662355942
102.19366322537776
101.01532324057239
100.450704728989
100.19457046037972
100.08419409976061
100.0388759058893
100.02115235499669
100.01472373622545
100.01313981673817
100.01472373576475
100.0211523535817
100.03887593410597
100.0841941737605
100.19457025409419
100.45070488993754
101.01532404396346
102.19366302335959
104.51407971022272
108.81245317934129
116.28275008837043
128.43921852996402
146.94260587774122
173.28881362650125
208.43427124720887
208.44991408874066
173.30499040384055
146.95926686839732
128.45623981912794
116.30000959391936
108.82989598330181
104.53163195482335
102.21129189278972
101.03299589430992
100.46840249077968
100.21228186751586
100.10191257112483
100.05659786038225
100.03887593575845
100.03244800681559
100.03086427525058
100.03244800635483
100.03887593434364
100.05659788859663
100.10191264511968
100.21228166124254
100.46840265172041
101.03299669766879
102.21129169077929
104.53163504139721
108.82989215959607
116.3000133675901
128.45622911382935
146.9592699813237
173.30502415992203
208.44991381873797
208.4900088832514
173.34653763465815
147.0019671149265
128.49981397246927
116.34421491523321
108.87453507054634
104.57655443905213
102.25639031190667
101.07819809105378
100.51366286940399
100.25757326972972
100.14721971948919
100.10191261766138
100.08419417616363
100.07776769921416
100.07618435888439
100.07776769875348
100.084194174749
100.10191264587061
100.14721979347279
100.25757306348355
100.51366303032668
101.07819889433713
102.2563901099145
104.57655752540944
108.87453124708033
116.34421868869806
128.49980326770233
147.0019702277116
173.34657138930436
208.49000861325612
208.5878998840899
173.44796626454735
147.10618672651066
128.60613170896977
116.45203261125744
108.98337112066292
104.6860465318457
102.36628330429106
101.1883235048811
100.62391619057817
100.36789347116297
100.2575731846863
100.21228182898257
100.19457045169602
100.1881468675789
100.18656429795479
100.18814686711843
100.19457045028206
100.21228185718145
100.25757325864623
100.36789326497504
100.62391635146183
101.18832430799647
102.36628310233976
104.68604961770535
108.98336729775492
116.45203638423565
128.60612100547257
147.10618983895537
173.44800001570837
208.58789961411355
208.81559595460337
173.6838709711518
147.34852680495945
128.8532693376829
116.70256449895518
109.23617901410921
104.94029987845119
102.62140596168523
101.44394144707948
100.87980168036694
100.62391615709947
100.51366275092846
100.46840241878373
100.45070468681932
100.44428659354936
100.44270547055774
100.44428659308939
100.45070468540665
100.4684024469623
100.51366282484148
100.62391595102942
100.8798018411696
101.44394224983986
102.62140575982066
104.94030296322194
109.23617519243788
116.70256827083846
128.85325863707374
147.3485299166225
173.6839047142513
208.8155956846732
209.31865816296153
174.20502502408257
147.8837747815159
129.39893632392364
117.25552610177657
109.79397143267397
105.5011167662059
103.18401313296867
102.00755120226039
101.44394321074779
101.18832523588992
101.0781997375417
101.0329975873931
101.01532496351378
101.00891680498718
101.00733827138403
101.00891680452791
101.01532496210325
101.03299761553401
101.07819981136555
101.1883250300474
101.44394337139092
102.0075520043079
103.1840129312791
105.50111984871438
109.79396761360535
117.25552987131961
129.39892562955228
147.88377789147447
174.2050587494719
209.3186578931397
210.3707611861678
175.29487483280724
149.00284618605946
130.53943063092552
118.41086428506381
110.95901962718725
106.67215936375239
104.35854927395891
103.18401125872272
102.62140584642401
102.36628315559321
102.25639007847698
102.2112917056811
102.1936630679801
102.18727203924497
102.185697924997
102.18727203878704
102.1936630665733
102.2112917337552
102.25639015214001
102.36628295016776
102.62140600676909
103.18401205941213
104.35854907260443
106.67216244180798
110.95901581330605
118.4108680498705
130.53941994930966
149.0028492924981
175.29490852136044
210.37076091658253
212.44669346860232
177.4451138198229
151.21025971262742
132.78842107397605
120.68837395493327
113.25496358686537
108.9793302454874
106.67216624656008
105.50112179054905
104.94030666146946
104.68605328399221
104.57656110790997
104.53163867032657
104.51408336885702
104.50772048167893
104.50615355910917
104.50772048122313
104.5140833674563
104.53163869828819
104.57656118129731
104.68605307929225
104.94030682128702
105.5011225887897
106.6721660458124
108.97933331525843
113.2549597827524
120.68837771068786
132.78841041698345
151.21026281220495
177.44514743608184
212.44669319950475
216.29910840503075
181.435120922011
155.30552341519984
136.95963747688725
124.91119167167217
117.5107601859764
113.25495626649658
110.95901913710719
109.79396908325471
109.23617840872811
108.98337048197807
108.87453434789492
108.82989530650349
108.8124563557354
108.80613752148575
108.80458175975035
108.80613752103305
108.8124563543442
108.82989533428513
108.87453442083398
108.98337027847403
109.23617856766126
109.79396987732088
110.95901893739763
113.25495932172574
117.51075639920352
124.91119541112982
136.95962686464608
155.30552650219153
181.43515440478834
216.2991081368723
223.00509575734466
188.3801334314989
162.43240943966921
144.21682712608163
132.2561259303852
124.91119105230167
120.6883660703517
118.41086317548339
117.25552314794535
116.70256327401519
116.45203135315039
116.34421357389186
116.30000829797916
116.28274504776454
116.27649194961683
116.27495271417362
116.2764919491689
116.28274504638779
116.3000083254869
116.34421364613866
116.45203115151575
116.7025634315456
117.25552393528834
118.41086297745102
120.68836910153232
124.91118729450073
132.25612964225778
144.21681659024927
162.4324125049837
188.380166683006
223.00509549087445
233.9329418217733
199.69678441123673
174.0434866075881
156.03750156690944
144.21682623757962
136.9596359699648
132.78841238812578
130.53942863433332
129.39893250612315
128.85326722581726
128.6061295641712
128.4998117455192
128.4562376369161
128.4392270819166
128.43306755668655
128.43155168888595
128.4330675562454
128.43922708056036
128.4562376640269
128.49981181675108
128.6061293653062
128.85326738124255
129.3989332832405
130.53942843885852
132.78841538186543
136.9596322576806
144.21682990560987
156.0374911534567
174.04348963791008
199.69681728744172
233.93294155812953
250.58534788385225
216.94076025668355
191.73360320861576
174.04348543753383
162.43240738341217
155.30552074336813
151.21024998898514
149.00284302648845
147.88376983400525
147.34852353051102
147.10618341950462
147.0019637272924
146.9592635245785
146.94259944899883
146.93656712136644
146.93508284005438
146.93656712093454
146.94259944767032
146.9592635511422
147.00196379711008
147.10618322453286
147.3485236829447
147.8837705964273
149.00284283469762
151.21025292784785
155.30551709831255
162.43241098604506
174.0434752078311
191.73360618604048
216.94079256301276
250.58534762461016
274.317598152576
241.51504498965738
216.9408247163995
199.6968488675639
188.3801977731435
181.43518512546825
177.4451714200461
175.294938972195
174.20508749605008
173.68393510773595
173.4480303855591
173.3466016841832
173.30505449888315
173.28884399332506
173.28297702445002
173.28153362008433
173.2829770240299
173.28884399203287
173.3050545247273
173.34660175212534
173.44803019578765
173.683935256139
174.20508823849545
175.29493878542064
177.44517428311738
181.4351815738389
188.38020128416804
199.6968388966216
216.94082761892238
241.51507648614665
274.31759789971227
305.99712138946285
274.31753997360784
250.58535046111876
233.93294334338447
223.00509647531234
216.29910856270197
212.44668700473892
210.37076090240296
209.31865620169435
208.8155955676007
208.58789946720825
208.49000839096303
208.44991363774184
208.4342710926106
208.42861009166614
208.42721742636013
208.42861009126082
208.4342710913638
208.4499136626816
208.4900084565335
208.58789928404804
208.81559571084662
209.31865691840113
210.37076072210067
212.44668976898777
216.29910513345436
223.00509986561713
233.93293371478183
250.58535326413644
274.3175703913667
305.9971211452161
