# vtk DataFile Version 2.0
Unstructured Grid Example
ASCII
DATASET UNSTRUCTURED_GRID

POINTS 961 float
0.100000001 0.00499999989 0
0.0966666639 0.00499999989 0
0.0933333337 0.00499999989 0
0.0900000036 0.00499999989 0
0.086666666 0.00499999989 0
0.0833333358 0.00499999989 0
0.0799999982 0.00499999989 0
0.0766666681 0.00499999989 0
0.0733333305 0.00499999989 0
0.0700000003 0.00499999989 0
0.0666666701 0.00499999989 0
0.0633333325 0.00499999989 0
0.0599999987 0.00499999989 0
0.0566666685 0.00499999989 0
0.0533333346 0.00499999989 0
0.0500000007 0.00499999989 0
0.0466666669 0.00499999989 0
0.043333333 0.00499999989 0
0.0399999991 0.00499999989 0
0.0366666652 0.00499999989 0
0.0333333351 0.00499999989 0
0.0299999993 0.00499999989 0
0.0266666673 0.00499999989 0
0.0233333334 0.00499999989 0
0.0199999996 0.00499999989 0
0.0166666675 0.00499999989 0
0.0133333337 0.00499999989 0
0.00999999978 0.00499999989 0
0.00666666683 0.00499999989 0
0.00333333341 0.00499999989 0
0.0 0.00499999989 0
0.100000001 0.00166666671 0
0.0966666639 0.00166666671 0
0.0933333337 0.00166666671 0
0.0900000036 0.00166666671 0
0.086666666 0.00166666671 0
0.0833333358 0.00166666671 0
0.0799999982 0.00166666671 0
0.0766666681 0.00166666671 0
0.0733333305 0.00166666671 0
0.0700000003 0.00166666671 0
0.0666666701 0.00166666671 0
0.0633333325 0.00166666671 0
0.0599999987 0.00166666671 0
0.0566666685 0.00166666671 0
0.0533333346 0.00166666671 0
0.0500000007 0.00166666671 0
0.0466666669 0.00166666671 0
0.043333333 0.00166666671 0
0.0399999991 0.00166666671 0
0.0366666652 0.00166666671 0
0.0333333351 0.00166666671 0
0.0299999993 0.00166666671 0
0.0266666673 0.00166666671 0
0.0233333334 0.00166666671 0
0.0199999996 0.00166666671 0
0.0166666675 0.00166666671 0
0.0133333337 0.00166666671 0
0.00999999978 0.00166666671 0
0.00666666683 0.00166666671 0
0.00333333341 0.00166666671 0
0.0 0.00166666671 0
0.100000001 -0.00166666671 0
0.0966666639 -0.00166666671 0
0.0933333337 -0.00166666671 0
0.0900000036 -0.00166666671 0
0.086666666 -0.00166666671 0
0.0833333358 -0.00166666671 0
0.0799999982 -0.00166666671 0
0.0766666681 -0.00166666671 0
0.0733333305 -0.00166666671 0
0.0700000003 -0.00166666671 0
0.0666666701 -0.00166666671 0
0.0633333325 -0.00166666671 0
0.0599999987 -0.00166666671 0
0.0566666685 -0.00166666671 0
0.0533333346 -0.00166666671 0
0.0500000007 -0.00166666671 0
0.0466666669 -0.00166666671 0
0.043333333 -0.00166666671 0
0.0399999991 -0.00166666671 0
0.0366666652 -0.00166666671 0
0.0333333351 -0.00166666671 0
0.0299999993 -0.00166666671 0
0.0266666673 -0.00166666671 0
0.0233333334 -0.00166666671 0
0.0199999996 -0.00166666671 0
0.0166666675 -0.00166666671 0
0.0133333337 -0.00166666671 0
0.00999999978 -0.00166666671 0
0.00666666683 -0.00166666671 0
0.00333333341 -0.00166666671 0
0.0 -0.00166666671 0
0.100000001 -0.00499999989 0
0.0966666639 -0.00499999989 0
0.0933333337 -0.00499999989 0
0.0900000036 -0.00499999989 0
0.086666666 -0.00499999989 0
0.0833333358 -0.00499999989 0
0.0799999982 -0.00499999989 0
0.0766666681 -0.00499999989 0
0.0733333305 -0.00499999989 0
0.0700000003 -0.00499999989 0
0.0666666701 -0.00499999989 0
0.0633333325 -0.00499999989 0
0.0599999987 -0.00499999989 0
0.0566666685 -0.00499999989 0
0.0533333346 -0.00499999989 0
0.0500000007 -0.00499999989 0
0.0466666669 -0.00499999989 0
0.043333333 -0.00499999989 0
0.0399999991 -0.00499999989 0
0.0366666652 -0.00499999989 0
0.0333333351 -0.00499999989 0
0.0299999993 -0.00499999989 0
0.0266666673 -0.00499999989 0
0.0233333334 -0.00499999989 0
0.0199999996 -0.00499999989 0
0.0166666675 -0.00499999989 0
0.0133333337 -0.00499999989 0
0.00999999978 -0.00499999989 0
0.00666666683 -0.00499999989 0
0.00333333341 -0.00499999989 0
0.0 -0.00499999989 0
0.100000001 -0.00833333377 0
0.0966666639 -0.00833333377 0
0.0933333337 -0.00833333377 0
0.0900000036 -0.00833333377 0
0.086666666 -0.00833333377 0
0.0833333358 -0.00833333377 0
0.0799999982 -0.00833333377 0
0.0766666681 -0.00833333377 0
0.0733333305 -0.00833333377 0
0.0700000003 -0.00833333377 0
0.0666666701 -0.00833333377 0
0.0633333325 -0.00833333377 0
0.0599999987 -0.00833333377 0
0.0566666685 -0.00833333377 0
0.0533333346 -0.00833333377 0
0.0500000007 -0.00833333377 0
0.0466666669 -0.00833333377 0
0.043333333 -0.00833333377 0
0.0399999991 -0.00833333377 0
0.0366666652 -0.00833333377 0
0.0333333351 -0.00833333377 0
0.0299999993 -0.00833333377 0
0.0266666673 -0.00833333377 0
0.0233333334 -0.00833333377 0
0.0199999996 -0.00833333377 0
0.0166666675 -0.00833333377 0
0.0133333337 -0.00833333377 0
0.00999999978 -0.00833333377 0
0.00666666683 -0.00833333377 0
0.00333333341 -0.00833333377 0
0.0 -0.00833333377 0
0.100000001 -0.0116666667 0
0.0966666639 -0.0116666667 0
0.0933333337 -0.0116666667 0
0.0900000036 -0.0116666667 0
0.086666666 -0.0116666667 0
0.0833333358 -0.0116666667 0
0.0799999982 -0.0116666667 0
0.0766666681 -0.0116666667 0
0.0733333305 -0.0116666667 0
0.0700000003 -0.0116666667 0
0.0666666701 -0.0116666667 0
0.0633333325 -0.0116666667 0
0.0599999987 -0.0116666667 0
0.0566666685 -0.0116666667 0
0.0533333346 -0.0116666667 0
0.0500000007 -0.0116666667 0
0.0466666669 -0.0116666667 0
0.043333333 -0.0116666667 0
0.0399999991 -0.0116666667 0
0.0366666652 -0.0116666667 0
0.0333333351 -0.0116666667 0
0.0299999993 -0.0116666667 0
0.0266666673 -0.0116666667 0
0.0233333334 -0.0116666667 0
0.0199999996 -0.0116666667 0
0.0166666675 -0.0116666667 0
0.0133333337 -0.0116666667 0
0.00999999978 -0.0116666667 0
0.00666666683 -0.0116666667 0
0.00333333341 -0.0116666667 0
0.0 -0.0116666667 0
0.100000001 -0.0149999997 0
0.0966666639 -0.0149999997 0
0.0933333337 -0.0149999997 0
0.0900000036 -0.0149999997 0
0.086666666 -0.0149999997 0
0.0833333358 -0.0149999997 0
0.0799999982 -0.0149999997 0
0.0766666681 -0.0149999997 0
0.0733333305 -0.0149999997 0
0.0700000003 -0.0149999997 0
0.0666666701 -0.0149999997 0
0.0633333325 -0.0149999997 0
0.0599999987 -0.0149999997 0
0.0566666685 -0.0149999997 0
0.0533333346 -0.0149999997 0
0.0500000007 -0.0149999997 0
0.0466666669 -0.0149999997 0
0.043333333 -0.0149999997 0
0.0399999991 -0.0149999997 0
0.0366666652 -0.0149999997 0
0.0333333351 -0.0149999997 0
0.0299999993 -0.0149999997 0
0.0266666673 -0.0149999997 0
0.0233333334 -0.0149999997 0
0.0199999996 -0.0149999997 0
0.0166666675 -0.0149999997 0
0.0133333337 -0.0149999997 0
0.00999999978 -0.0149999997 0
0.00666666683 -0.0149999997 0
0.00333333341 -0.0149999997 0
0.0 -0.0149999997 0
0.100000001 -0.0183333326 0
0.0966666639 -0.0183333326 0
0.0933333337 -0.0183333326 0
0.0900000036 -0.0183333326 0
0.086666666 -0.0183333326 0
0.0833333358 -0.0183333326 0
0.0799999982 -0.0183333326 0
0.0766666681 -0.0183333326 0
0.0733333305 -0.0183333326 0
0.0700000003 -0.0183333326 0
0.0666666701 -0.0183333326 0
0.0633333325 -0.0183333326 0
0.0599999987 -0.0183333326 0
0.0566666685 -0.0183333326 0
0.0533333346 -0.0183333326 0
0.0500000007 -0.0183333326 0
0.0466666669 -0.0183333326 0
0.043333333 -0.0183333326 0
0.0399999991 -0.0183333326 0
0.0366666652 -0.0183333326 0
0.0333333351 -0.0183333326 0
0.0299999993 -0.0183333326 0
0.0266666673 -0.0183333326 0
0.0233333334 -0.0183333326 0
0.0199999996 -0.0183333326 0
0.0166666675 -0.0183333326 0
0.0133333337 -0.0183333326 0
0.00999999978 -0.0183333326 0
0.00666666683 -0.0183333326 0
0.00333333341 -0.0183333326 0
0.0 -0.0183333326 0
0.100000001 -0.0216666665 0
0.0966666639 -0.0216666665 0
0.0933333337 -0.0216666665 0
0.0900000036 -0.0216666665 0
0.086666666 -0.0216666665 0
0.0833333358 -0.0216666665 0
0.0799999982 -0.0216666665 0
0.0766666681 -0.0216666665 0
0.0733333305 -0.0216666665 0
0.0700000003 -0.0216666665 0
0.0666666701 -0.0216666665 0
0.0633333325 -0.0216666665 0
0.0599999987 -0.0216666665 0
0.0566666685 -0.0216666665 0
0.0533333346 -0.0216666665 0
0.0500000007 -0.0216666665 0
0.0466666669 -0.0216666665 0
0.043333333 -0.0216666665 0
0.0399999991 -0.0216666665 0
0.0366666652 -0.0216666665 0
0.0333333351 -0.0216666665 0
0.0299999993 -0.0216666665 0
0.0266666673 -0.0216666665 0
0.0233333334 -0.0216666665 0
0.0199999996 -0.0216666665 0
0.0166666675 -0.0216666665 0
0.0133333337 -0.0216666665 0
0.00999999978 -0.0216666665 0
0.00666666683 -0.0216666665 0
0.00333333341 -0.0216666665 0
0.0 -0.0216666665 0
0.100000001 -0.0250000004 0
0.0966666639 -0.0250000004 0
0.0933333337 -0.0250000004 0
0.0900000036 -0.0250000004 0
0.086666666 -0.0250000004 0
0.0833333358 -0.0250000004 0
0.0799999982 -0.0250000004 0
0.0766666681 -0.0250000004 0
0.0733333305 -0.0250000004 0
0.0700000003 -0.0250000004 0
0.0666666701 -0.0250000004 0
0.0633333325 -0.0250000004 0
0.0599999987 -0.0250000004 0
0.0566666685 -0.0250000004 0
0.0533333346 -0.0250000004 0
0.0500000007 -0.0250000004 0
0.0466666669 -0.0250000004 0
0.043333333 -0.0250000004 0
0.0399999991 -0.0250000004 0
0.0366666652 -0.0250000004 0
0.0333333351 -0.0250000004 0
0.0299999993 -0.0250000004 0
0.0266666673 -0.0250000004 0
0.0233333334 -0.0250000004 0
0.0199999996 -0.0250000004 0
0.0166666675 -0.0250000004 0
0.0133333337 -0.0250000004 0
0.00999999978 -0.0250000004 0
0.00666666683 -0.0250000004 0
0.00333333341 -0.0250000004 0
0.0 -0.0250000004 0
0.100000001 -0.0283333343 0
0.0966666639 -0.0283333343 0
0.0933333337 -0.0283333343 0
0.0900000036 -0.0283333343 0
0.086666666 -0.0283333343 0
0.0833333358 -0.0283333343 0
0.0799999982 -0.0283333343 0
0.0766666681 -0.0283333343 0
0.0733333305 -0.0283333343 0
0.0700000003 -0.0283333343 0
0.0666666701 -0.0283333343 0
0.0633333325 -0.0283333343 0
0.0599999987 -0.0283333343 0
0.0566666685 -0.0283333343 0
0.0533333346 -0.0283333343 0
0.0500000007 -0.0283333343 0
0.0466666669 -0.0283333343 0
0.043333333 -0.0283333343 0
0.0399999991 -0.0283333343 0
0.0366666652 -0.0283333343 0
0.0333333351 -0.0283333343 0
0.0299999993 -0.0283333343 0
0.0266666673 -0.0283333343 0
0.0233333334 -0.0283333343 0
0.0199999996 -0.0283333343 0
0.0166666675 -0.0283333343 0
0.0133333337 -0.0283333343 0
0.00999999978 -0.0283333343 0
0.00666666683 -0.0283333343 0
0.00333333341 -0.0283333343 0
0.0 -0.0283333343 0
[...]
POINT_DATA 961
SCALARS Temp float 1
LOOKUP_TABLE default
312.45123021353044
280.8501245169616
256.87296599402094
239.75666067736714
228.2790783910327
221.05212959912984
216.77635836234776
214.39584201640855
213.14602307121362
212.52565796558673
212.23371177970503
212.1030716337
212.04734791354502
212.0247182681094
212.01622403175026
212.0140830798538
212.01622403112862
212.02471826625649
212.04734794877848
212.1030717225477
212.23371153993224
212.5256581456049
213.14602393570598
214.39584180069906
216.77636147459282
221.05212583683021
228.2790819921319
239.75665066423318
256.8729688474611
280.85015505004856
312.4512299868044
280.8501572020519
248.12356469734092
223.29177753086526
205.56474586086716
193.67709648561427
186.1915479569354
181.7625118541147
179.2965037394544
178.00170908151443
177.35897261001895
177.05647567067174
176.92110400414555
176.86335772248881
176.839904986544
176.8311012192967
176.8288821560484
176.8311012186525
176.83990498462362
176.86335775900213
176.9211040962136
177.05647542222366
177.35897279653568
178.0017099771434
179.2965035159793
181.7625150780114
186.19154405986816
193.67710021545903
205.56473549020225
223.29178048605954
248.1235963182986
280.85015696728885
256.8729705087839
223.29174747190802
197.80964781299934
179.61659904798793
167.41496266945717
159.7305992634644
155.18319072262236
152.65082395782213
151.32093405608975
150.66064475662657
150.3498230948826
150.21069711609968
150.1513370308665
150.1272240104024
150.11817074858575
150.1158885288926
150.11817074792305
150.1272240084278
150.15133706840336
150.21069721072865
150.34982283956955
150.6606449482561
151.32093497606994
152.65082372828127
155.1831940329421
159.73059526249705
167.41496649805822
179.61658840399764
197.80965084571778
223.29177991978392
256.87297026799524
239.7566509313988
205.5647003989058
179.61658380167097
161.0883419191606
148.65982142833877
140.83101802314798
136.19708691012337
133.61589428054262
132.2600000855021
131.58660993978134
131.26952885294915
131.12755895977398
131.0669674177056
131.04234698339855
131.03310078991507
131.03076953428868
131.0331007892381
131.04234698138183
131.0669674560258
131.1275590563478
131.26952859245387
131.58661013524065
132.26000102358006
133.61589404650098
136.19709028379776
140.8310139464174
148.6598253284698
161.08833107808633
179.61658689003664
205.56473343852008
239.75665068637863
228.27908237456504
193.6770648176946
167.41496195905253
148.6598364249058
136.07686573773302
128.1490751216859
123.4553999113136
120.84021487499164
119.4660582488227
118.78338410219935
118.46182623983138
118.317803509739
118.25631492147612
118.23132161212486
118.22193254032975
118.21956478862447
118.22193253964218
118.23132161007702
118.2563149603688
118.31780360772181
118.4618259756116
118.7833843003849
119.46605919965805
120.84021463778404
123.45540332889401
128.1490709927954
136.0768696867013
148.65982545002072
167.4149650849899
193.67709825530608
228.27908212676664
221.05212762251028
186.19150984657537
159.73059217823314
140.83102664687038
128.14906854940367
120.15733562113549
115.424723580002
112.78716896501278
111.40086980243068
110.7119563219307
110.38735675522615
110.24192383491084
110.17981229105818
110.15455731718139
110.14506705179319
110.14267329788905
110.14506705109804
110.15455731511167
110.17981233035022
110.24192393386545
110.38735648846104
110.71195652195827
111.40087076178634
112.78716872569622
115.42472702632047
120.15733145836965
128.14907252978065
140.83101558649201
159.73059532802026
186.19154353568106
221.0521273730078
216.77636175171114
181.76247914235216
155.18318932209527
136.19710139995945
123.45539920928898
115.42472953137272
110.66816806171359
108.01670202499412
106.62276238621622
105.92987454605479
105.60331300914221
105.45695891261055
105.39443530457524
105.3690051463843
105.35944640694663
105.35703493769061
105.35944640624639
105.36900514429985
105.39443534413276
105.45695901220297
105.60331274072423
105.9298747472631
106.62276335096067
108.01670178434784
110.66817152579516
115.42472534785361
123.45540320869729
136.19709028816283
155.1831924861224
181.76251298085043
216.7763615012313
214.39584253290067
179.29646796244305
152.65081948907095
133.61590568478297
120.84021100652336
112.78717174185003
108.0166988165084
105.3570537057803
103.95856332704383
103.26327595120537
102.9355132024499
102.78858708775698
102.72580397794928
102.7002619875898
102.69065901023595
102.68823600790897
102.69065900953234
102.70026198549566
102.72580401767492
102.78858718774782
102.93551293301235
103.26327615313157
103.95856429501626
105.3570534643404
108.0167022909637
112.78716754632867
120.84021501680635
133.61589454384386
152.65082266110647
179.29650188448042
214.39584228189568
213.1460244287607
178.00167412878113
151.32093047585798
132.26001241792642
119.46605529945329
111.40087351678177
106.62276011093176
103.95856426875159
102.55750635065007
101.86084511617729
101.53238408764363
101.3851202772302
101.32218158699398
101.29657154094818
101.28694128600473
101.28451111228988
101.28694128529914
101.29657153884824
101.32218162682125
101.38512037745755
101.53238381760849
101.86084531851756
102.55750732045523
103.95856402686287
106.62276359111749
111.40086931469942
119.46605931560548
132.2600012613947
151.32093365214322
178.00170809488296
213.14602417749103
212.52565827413318
177.3589365470189
150.66064005674667
131.58662114167836
118.78337999584922
110.71195887410012
105.92987109701612
103.26327571800732
101.86084393805112
101.16343604443993
100.83458933332143
100.68713589518921
100.6241083805395
100.59845884956232
100.5888125425037
100.58637811036398
100.5888125417968
100.59845884745914
100.62410842042509
100.68713599555026
100.83458906295323
101.16343624700708
101.86084490884342
103.26327547587796
105.92987458020085
110.71195466862164
118.78338401499929
131.5866099772539
150.66064323516497
177.35897053509916
212.52565802273762
212.2337118464276
177.05643934599905
150.34981813594396
131.269539795882
118.46182186549515
110.38735903936183
105.60330928792675
102.93551269743026
101.53238263658763
100.83458906067357
100.50553973302532
100.35798492993138
100.294909095746
100.26923771609394
100.25958239232733
100.25714554527588
100.25958239161969
100.26923771398863
100.29490913566363
100.35798503036445
100.50553946248044
100.83458926335875
101.53238360788502
102.93551245517841
105.60331277260119
110.3873548322155
118.46182588609783
131.26952862766868
150.34982131537768
177.05647334447352
212.23371159497586
212.1030719503697
176.92106793347517
150.21069242261086
131.12757017599102
118.31779941017005
110.24192639764509
105.45695547056107
102.78858686362739
101.38511910744468
100.68713590446339
100.35798521212966
100.2103787802359
100.14727788372205
100.12159496872
100.11193480948833
100.10949665452551
100.1119348087803
100.12159496661361
100.14727792365633
100.21037888070583
100.35798494149554
100.68713610720721
101.38512007898794
102.788586621316
105.45695895593944
110.24192218971965
118.31780343144219
131.12755900604787
150.21069560250422
176.92110193662424
212.10307169889396
212.0473481929051
176.8633216110194
150.15133229734175
131.0669785941273
118.25631078047489
110.17981481247404
105.39443182042308
102.72580371184826
101.32218037502528
100.62410834771637
100.2949093358612
100.14727784157886
100.08416455193495
100.05847582870983
100.04881319574962
100.04637436496374
100.04881319504143
100.05847582660292
100.08416459187748
100.14727794206672
100.29490906518413
100.6241085504878
101.32218134668277
102.72580346950944
105.39443530611827
110.17981060420202
118.256314802041
131.06696742343155
150.15133547743343
176.86335561617238
212.04734794141976
212.02471851645788
176.8398688420632
150.12721924371135
131.04235812639536
118.2313174367546
110.15455980408933
105.36900162726462
102.70026168649586
101.29657029384357
100.59845878161198
100.26923792107226
100.12159489140353
100.05847579353212
100.03278429963879
100.02312046823617
100.02068130684992
100.02312046752789
100.03278429753162
100.05847583347845
100.12159499189971
100.26923765037546
100.59845898439585
101.29657126555138
102.700261444145
105.3690051130954
110.15455559567073
118.23132145844349
131.04234695538818
150.12722242388455
176.8399028480339
212.02471826496884
212.0162242842738
176.83106507881408
150.11816598629602
131.03311193757233
118.22192836952172
110.14506954339517
105.35944289246599
102.69065871385101
101.28694004360077
100.58881247928585
100.25958260205039
100.11193473691006
100.04881316531244
100.02312047297873
100.01345611616266
100.0110168086189
100.0134561154543
100.0231204708714
100.0488132052605
100.11193483740975
100.25958233134548
100.58881268207487
101.28694101532889
102.69065847149535
105.35944637835004
110.14506533491945
118.22193239125777
131.0331007664463
150.11816916650002
176.8310990850929
212.0162240327835
212.01408333537995
176.82884601859476
150.11588376979162
131.03078068524525
118.2195606211241
110.14267579285648
105.35703142657755
102.68823571492032
101.28450987328674
100.58637805055938
100.25714575841772
100.1094965853654
100.04637433794595
100.02068131501275
100.01101681203927
100.00857746362767
100.01101681133099
100.02068131290544
100.0463743778945
100.10949668586608
100.25714548771062
100.58637825334965
101.2845108450202
102.6882354725635
105.35703491247541
110.14267158436598
118.21956464287243
131.03076951408895
150.1158869500035
176.8288800249516
212.01408308388943
212.01622428585748
176.83106508045552
150.11816598798384
131.03311193929625
118.2219283712722
110.14506954516462
105.35944289424819
102.69065871564155
101.28694004539645
100.58881248108455
100.25958260385076
100.11193473871131
100.04881316711422
100.02312047478071
100.01345611796478
100.01101681042095
100.01345611725641
100.02312047267348
100.04881320706235
100.1119348392111
100.25958233314594
100.58881268387354
101.28694101712458
102.69065847328598
105.35944638013233
110.14506533668892
118.22193239300837
131.03310076817024
150.11816916818788
176.8310990867342
212.01622403436716
212.02471852069243
176.83986884645185
150.12721924822372
131.042358131003
118.23131744143247
110.15455980881666
105.36900163202515
102.70026169127763
101.29657029863839
100.59845878641433
100.26923792587883
100.1215948962124
100.05847579834209
100.03278430444945
100.023120473047
100.02068131166085
100.02312047233882
100.0327843023423
100.05847583828852
100.12159499670872
100.26923765518218
100.59845898919826
101.2965712703463
102.70026144892697
105.36900511785595
110.15455560039798
118.23132146312145
131.04234695999585
150.12722242839675
176.8399028524225
212.0247182692032
212.04734820344456
176.8633216219415
150.15133230856986
131.06697860558927
118.2563107921077
110.17981482422599
105.39443183225404
102.72580372372931
101.32218038693634
100.62410835964474
100.29490934779909
100.14727785352176
100.08416456388031
100.05847584065634
100.04881320769664
100.04637437691106
100.04881320698847
100.05847583854944
100.08416460382287
100.14727795400965
100.29490907712207
100.62410856241624
101.32218135859404
102.72580348139054
105.39443531794933
110.179810615954
118.25631481367394
131.06696743489363
150.15133548866143
176.8633556270944
212.04734795195913
212.10307197799915
176.92106796210592
150.2106924520377
131.12757020602223
118.31779944063868
110.24192642841528
105.45695550152917
102.78858689471903
101.3851191386094
100.6871359356696
100.35798524335821
100.21037881147582
100.14727791496759
100.12159499996815
100.11193484073755
100.10949668577504
100.11193484002955
100.12159499786164
100.1472779549018
100.2103789119457
100.35798497272405
100.68713613841344
101.38512011015287
102.78858665240773
105.45695898690764
110.24192222049035
118.3178034619109
131.127559036079
150.21069563193097
176.92110196525502
212.1030717265234
212.23371202147706
177.0564395273804
150.34981832233268
131.26953998604728
118.46182205837168
110.3873592340889
105.60330948385375
102.93551289409633
101.53238283368603
100.8345892580124
100.50553993049152
100.3579851274618
100.29490929330721
100.2692379136692
100.2595825899084
100.25714574285861
100.25958258920082
100.2692379115639
100.29490933322475
100.3579852278947
100.5055396599466
100.83458946069767
101.53238380498344
102.93551265184446
105.60331296852834
110.38735502694273
118.46182607897444
131.26952881783373
150.3498215017663
177.05647352585476
212.2337117700252
212.52565816998123
177.35893643910515
150.66063994586887
131.58662102857573
118.78337988115908
110.71195875833433
105.92987098055863
103.26327560112786
101.86084382092724
101.16343592718152
100.83458921599261
100.68713577782546
100.62410826315904
100.5984587321745
100.58881242511264
100.58637799297215
100.58881242440589
100.59845873007123
100.62410830304464
100.68713587818641
100.83458894562445
101.1634361297486
101.86084479171942
103.26327535899854
105.9298744637434
110.71195455285594
118.78338390030916
131.58660986415117
150.6606431242867
177.35897042718483
212.52565791858552
213.14602517945272
178.0016749065128
151.32093127474104
132.26001323253263
119.46605612514635
111.40087434988195
106.62276094871852
103.95856510934694
102.55750719284052
101.86084595922736
101.53238493113383
101.38512112093485
101.32218243079816
101.2965723847962
101.28694212987043
101.28451195616024
101.28694212916477
101.29657238269634
101.3221824706255
101.38512122116211
101.53238466109862
101.86084616156757
102.55750816264568
103.95856486745822
106.6227644289043
111.40087014779967
119.46606014129853
132.26000207600075
151.3209344510261
178.00170887261453
213.14602492818298
214.39584209485247
179.29646750863927
152.65081902298957
133.6159052096203
120.84021052499696
112.78717125610362
108.01669832811454
105.35705321581494
103.95856283619507
103.26327545988582
102.93551271089194
102.78858659608426
102.72580348622377
102.7002614958414
102.6906585184783
102.68823551614891
102.69065851777476
102.70026149374732
102.72580352594967
102.78858669607513
102.9355124414543
103.26327566181186
103.95856380416751
105.35705297437498
108.01670180256993
112.78716706058219
120.84021453528007
133.61589406868106
152.65082219502497
179.29650143067664
214.39584184384748
216.77636541635022
181.76248293846575
155.1831932199868
136.1971053724732
123.45540323352697
115.42473358947328
110.66817214074976
108.01670611626015
106.62276648424026
105.92987864761666
105.60331711246205
105.45696301676126
105.39443940910006
105.3690092510692
105.35945051169436
105.35703904245476
105.35945051099424
105.3690092489848
105.3944394486576
105.45696311635372
105.60331684404407
105.92987884882501
106.62276744898465
108.01670587561401
110.66817560483143
115.42472940595422
123.45540723293534
136.19709426067664
155.18319638401402
181.76251677696422
216.77636516587052
221.05212919028887
186.19151147047532
159.73059384532476
140.83102834538445
128.14907026948987
120.15733735518576
115.4247253225761
112.78717071249737
111.40087155258897
110.71195807346717
110.38735850743689
110.24192558743502
110.17981404372146
110.15455906990331
110.14506880453786
110.1426750506396
110.1450688038427
110.1545590678336
110.1798140830136
110.24192568638969
110.38735824067166
110.71195827349482
111.40087251194466
112.78717047318102
115.42472876889482
120.15733319242013
128.14907424986697
140.83101728500628
159.7305969951117
186.19154515958132
221.05212894078673
228.27907741145322
193.67705967710344
167.41495668224482
148.6598310493596
136.07686029470906
128.14906963521747
123.45539439848892
120.84020934708695
119.46605271276825
118.78337856197629
118.46182069758551
118.31779796655982
118.25630937788641
118.23131606836348
118.2219269965023
118.21955924478006
118.22192699581475
118.23131606631574
118.2563094167792
118.31779806454253
118.4618204333656
118.78337876016181
119.46605366360347
120.84020910987952
123.45539781606956
128.14906550632705
136.0768642436775
148.6598200744746
167.4149598081824
193.6770931147152
228.2790771636552
239.75665889787078
205.56470864980838
179.6165922699704
161.08835054417455
148.65983015972066
140.83102682246493
136.19709575028273
133.61590314384122
132.26000896117608
131.5866188217171
131.26953773789012
131.1275678460862
131.06697630461434
131.04235587055385
131.0331096771645
131.03077842156208
131.03310967648756
131.04235586853716
131.06697634293414
131.12756794266
131.2695374773947
131.5866190171763
132.2600098992539
133.6159029097994
136.19709912395706
140.83102274573443
148.65983405985168
161.08833970310047
179.61659535833627
205.5647416894226
239.75665865285083
256.87296318719535
223.29173988920908
197.80964003132482
179.61659112345046
167.41495464843376
159.73059118117644
155.18318260374488
152.65081581836398
151.32092590570866
150.66063660076261
150.3498149364092
150.21068895644473
150.15132887070183
150.12721585002865
150.11816258813238
150.1158803684192
150.11816258746964
150.12721584805365
150.15132890823847
150.21068905107342
150.3498146810957
150.66063679239187
151.32092682568828
152.6508155888228
155.18318591406438
159.730587180209
167.4149584770347
179.61658047946025
197.80964306404354
223.29177233708558
256.87296294640703
280.85018274884135
248.1235911543348
223.29180467970843
205.564773504776
193.67712446248444
186.19157614419186
181.762540166337
179.29653212155137
178.00173750046542
177.35900104735035
177.0565041166953
176.92113245407776
176.8633861740963
176.83993343883512
176.83112967184547
176.8289106086621
176.83112967120098
176.83993343691455
176.8633862106095
176.92113254614557
177.05650386824706
177.35900123386654
178.0017383960938
179.29653189807595
181.76254339023333
186.19157224712433
193.67712819232915
205.56476313411144
223.29180763490285
248.12362277529186
280.8501825140786
312.45123008685977
280.85012438580395
256.8729658595058
239.75666054050046
228.27907825262685
221.0521294597832
216.7763582224636
214.39584187623686
213.14602293089763
212.5256578252027
212.23371163929056
212.10307149327264
212.04734777311234
212.02471812767473
212.01622389131484
212.0140829394181
212.01622389069308
212.0247181258217
212.04734780834548
212.10307158212
212.23371139951738
212.52565800522078
213.1460237953897
214.39584166052714
216.77636133470824
221.05212569748323
228.27908185372587
239.7566505273665
256.8729687129462
280.8501549188912
312.45122986013394
