# vtk DataFile Version 2.0
Unstructured Grid Example
ASCII
DATASET UNSTRUCTURED_GRID

POINTS 961 float
0.100000001 0.00499999989 0
0.0966666639 0.00499999989 0
0.0933333337 0.00499999989 0
0.0900000036 0.00499999989 0
0.086666666 0.00499999989 0
0.0833333358 0.00499999989 0
0.0799999982 0.00499999989 0
0.0766666681 0.00499999989 0
0.0733333305 0.00499999989 0
0.0700000003 0.00499999989 0
0.0666666701 0.00499999989 0
0.0633333325 0.00499999989 0
0.0599999987 0.00499999989 0
0.0566666685 0.00499999989 0
0.0533333346 0.00499999989 0
0.0500000007 0.00499999989 0
0.0466666669 0.00499999989 0
0.043333333 0.00499999989 0
0.0399999991 0.00499999989 0
0.0366666652 0.00499999989 0
0.0333333351 0.00499999989 0
0.0299999993 0.00499999989 0
0.0266666673 0.00499999989 0
0.0233333334 0.00499999989 0
0.0199999996 0.00499999989 0
0.0166666675 0.00499999989 0
0.0133333337 0.00499999989 0
0.00999999978 0.00499999989 0
0.00666666683 0.00499999989 0
0.00333333341 0.00499999989 0
0.0 0.00499999989 0
0.100000001 0.00166666671 0
0.0966666639 0.00166666671 0
0.0933333337 0.00166666671 0
0.0900000036 0.00166666671 0
0.086666666 0.00166666671 0
0.0833333358 0.00166666671 0
0.0799999982 0.00166666671 0
0.0766666681 0.00166666671 0
0.0733333305 0.00166666671 0
0.0700000003 0.00166666671 0
0.0666666701 0.00166666671 0
0.0633333325 0.00166666671 0
0.0599999987 0.00166666671 0
0.0566666685 0.00166666671 0
0.0533333346 0.00166666671 0
0.0500000007 0.00166666671 0
0.0466666669 0.00166666671 0
0.043333333 0.00166666671 0
0.0399999991 0.00166666671 0
0.0366666652 0.00166666671 0
0.0333333351 0.00166666671 0
0.0299999993 0.00166666671 0
0.0266666673 0.00166666671 0
0.0233333334 0.00166666671 0
0.0199999996 0.00166666671 0
0.0166666675 0.00166666671 0
0.0133333337 0.00166666671 0
0.00999999978 0.00166666671 0
0.00666666683 0.00166666671 0
0.00333333341 0.00166666671 0
0.0 0.00166666671 0
0.100000001 -0.00166666671 0
0.0966666639 -0.00166666671 0
0.0933333337 -0.00166666671 0
0.0900000036 -0.00166666671 0
0.086666666 -0.00166666671 0
0.0833333358 -0.00166666671 0
0.0799999982 -0.00166666671 0
0.0766666681 -0.00166666671 0
0.0733333305 -0.00166666671 0
0.0700000003 -0.00166666671 0
0.0666666701 -0.00166666671 0
0.0633333325 -0.00166666671 0
0.0599999987 -0.00166666671 0
0.0566666685 -0.00166666671 0
0.0533333346 -0.00166666671 0
0.0500000007 -0.00166666671 0
0.0466666669 -0.00166666671 0
0.043333333 -0.00166666671 0
0.0399999991 -0.00166666671 0
0.0366666652 -0.00166666671 0
0.0333333351 -0.00166666671 0
0.0299999993 -0.00166666671 0
0.0266666673 -0.00166666671 0
0.0233333334 -0.00166666671 0
0.0199999996 -0.00166666671 0
0.0166666675 -0.00166666671 0
0.0133333337 -0.00166666671 0
0.00999999978 -0.00166666671 0
0.00666666683 -0.00166666671 0
0.00333333341 -0.00166666671 0
0.0 -0.00166666671 0
0.100000001 -0.00499999989 0
0.0966666639 -0.00499999989 0
0.0933333337 -0.00499999989 0
0.0900000036 -0.00499999989 0
0.086666666 -0.00499999989 0
0.0833333358 -0.00499999989 0
0.0799999982 -0.00499999989 0
0.0766666681 -0.00499999989 0
0.0733333305 -0.00499999989 0
0.0700000003 -0.00499999989 0
0.0666666701 -0.00499999989 0
0.0633333325 -0.00499999989 0
0.0599999987 -0.00499999989 0
0.0566666685 -0.00499999989 0
0.0533333346 -0.00499999989 0
0.0500000007 -0.00499999989 0
0.0466666669 -0.00499999989 0
0.043333333 -0.00499999989 0
0.0399999991 -0.00499999989 0
0.0366666652 -0.00499999989 0
0.0333333351 -0.00499999989 0
0.0299999993 -0.00499999989 0
0.0266666673 -0.00499999989 0
0.0233333334 -0.00499999989 0
0.0199999996 -0.00499999989 0
0.0166666675 -0.00499999989 0
0.0133333337 -0.00499999989 0
0.00999999978 -0.00499999989 0
0.00666666683 -0.00499999989 0
0.00333333341 -0.00499999989 0
0.0 -0.00499999989 0
0.100000001 -0.00833333377 0
0.0966666639 -0.00833333377 0
0.0933333337 -0.00833333377 0
0.0900000036 -0.00833333377 0
0.086666666 -0.00833333377 0
0.0833333358 -0.00833333377 0
0.0799999982 -0.00833333377 0
0.0766666681 -0.00833333377 0
0.0733333305 -0.00833333377 0
0.0700000003 -0.00833333377 0
0.0666666701 -0.00833333377 0
0.0633333325 -0.00833333377 0
0.0599999987 -0.00833333377 0
0.0566666685 -0.00833333377 0
0.0533333346 -0.00833333377 0
0.0500000007 -0.00833333377 0
0.0466666669 -0.00833333377 0
0.043333333 -0.00833333377 0
0.0399999991 -0.00833333377 0
0.0366666652 -0.00833333377 0
0.0333333351 -0.00833333377 0
0.0299999993 -0.00833333377 0
0.0266666673 -0.00833333377 0
0.0233333334 -0.00833333377 0
0.0199999996 -0.00833333377 0
0.0166666675 -0.00833333377 0
0.0133333337 -0.00833333377 0
0.00999999978 -0.00833333377 0
0.00666666683 -0.00833333377 0
0.00333333341 -0.00833333377 0
0.0 -0.00833333377 0
0.100000001 -0.0116666667 0
0.0966666639 -0.0116666667 0
0.0933333337 -0.0116666667 0
0.0900000036 -0.0116666667 0
0.086666666 -0.0116666667 0
0.0833333358 -0.0116666667 0
0.0799999982 -0.0116666667 0
0.0766666681 -0.0116666667 0
0.0733333305 -0.0116666667 0
0.0700000003 -0.0116666667 0
0.0666666701 -0.0116666667 0
0.0633333325 -0.0116666667 0
0.0599999987 -0.0116666667 0
0.0566666685 -0.0116666667 0
0.0533333346 -0.0116666667 0
0.0500000007 -0.0116666667 0
0.0466666669 -0.0116666667 0
0.043333333 -0.0116666667 0
0.0399999991 -0.0116666667 0
0.0366666652 -0.0116666667 0
0.0333333351 -0.0116666667 0
0.0299999993 -0.0116666667 0
0.0266666673 -0.0116666667 0
0.0233333334 -0.0116666667 0
0.0199999996 -0.0116666667 0
0.0166666675 -0.0116666667 0
0.0133333337 -0.0116666667 0
0.00999999978 -0.0116666667 0
0.00666666683 -0.0116666667 0
0.00333333341 -0.0116666667 0
0.0 -0.0116666667 0
0.100000001 -0.0149999997 0
0.0966666639 -0.0149999997 0
0.0933333337 -0.0149999997 0
0.0900000036 -0.0149999997 0
0.086666666 -0.0149999997 0
0.0833333358 -0.0149999997 0
0.0799999982 -0.0149999997 0
0.0766666681 -0.0149999997 0
0.0733333305 -0.0149999997 0
0.0700000003 -0.0149999997 0
0.0666666701 -0.0149999997 0
0.0633333325 -0.0149999997 0
0.0599999987 -0.0149999997 0
0.0566666685 -0.0149999997 0
0.0533333346 -0.0149999997 0
0.0500000007 -0.0149999997 0
0.0466666669 -0.0149999997 0
0.043333333 -0.0149999997 0
0.0399999991 -0.0149999997 0
0.0366666652 -0.0149999997 0
0.0333333351 -0.0149999997 0
0.0299999993 -0.0149999997 0
0.0266666673 -0.0149999997 0
0.0233333334 -0.0149999997 0
0.0199999996 -0.0149999997 0
0.0166666675 -0.0149999997 0
0.0133333337 -0.0149999997 0
0.00999999978 -0.0149999997 0
0.00666666683 -0.0149999997 0
0.00333333341 -0.0149999997 0
0.0 -0.0149999997 0
0.100000001 -0.0183333326 0
0.0966666639 -0.0183333326 0
0.0933333337 -0.0183333326 0
0.0900000036 -0.0183333326 0
0.086666666 -0.0183333326 0
0.0833333358 -0.0183333326 0
0.0799999982 -0.0183333326 0
0.0766666681 -0.0183333326 0
0.0733333305 -0.0183333326 0
0.0700000003 -0.0183333326 0
0.0666666701 -0.0183333326 0
0.0633333325 -0.0183333326 0
0.0599999987 -0.0183333326 0
0.0566666685 -0.0183333326 0
0.0533333346 -0.0183333326 0
0.0500000007 -0.0183333326 0
0.0466666669 -0.0183333326 0
0.043333333 -0.0183333326 0
0.0399999991 -0.0183333326 0
0.0366666652 -0.0183333326 0
0.0333333351 -0.0183333326 0
0.0299999993 -0.0183333326 0
0.0266666673 -0.0183333326 0
0.0233333334 -0.0183333326 0
0.0199999996 -0.0183333326 0
0.0166666675 -0.0183333326 0
0.0133333337 -0.0183333326 0
0.00999999978 -0.0183333326 0
0.00666666683 -0.0183333326 0
0.00333333341 -0.0183333326 0
0.0 -0.0183333326 0
0.100000001 -0.0216666665 0
0.0966666639 -0.0216666665 0
0.0933333337 -0.0216666665 0
0.0900000036 -0.0216666665 0
0.086666666 -0.0216666665 0
0.0833333358 -0.0216666665 0
0.0799999982 -0.0216666665 0
0.0766666681 -0.0216666665 0
0.0733333305 -0.0216666665 0
0.0700000003 -0.0216666665 0
0.0666666701 -0.0216666665 0
0.0633333325 -0.0216666665 0
0.0599999987 -0.0216666665 0
0.0566666685 -0.0216666665 0
0.0533333346 -0.0216666665 0
0.0500000007 -0.0216666665 0
0.0466666669 -0.0216666665 0
0.043333333 -0.0216666665 0
0.0399999991 -0.0216666665 0
0.0366666652 -0.0216666665 0
0.0333333351 -0.0216666665 0
0.0299999993 -0.0216666665 0
0.0266666673 -0.0216666665 0
0.0233333334 -0.0216666665 0
0.0199999996 -0.0216666665 0
0.0166666675 -0.0216666665 0
0.0133333337 -0.0216666665 0
0.00999999978 -0.0216666665 0
0.00666666683 -0.0216666665 0
0.00333333341 -0.0216666665 0
0.0 -0.0216666665 0
0.100000001 -0.0250000004 0
0.0966666639 -0.0250000004 0
0.0933333337 -0.0250000004 0
0.0900000036 -0.0250000004 0
0.086666666 -0.0250000004 0
0.0833333358 -0.0250000004 0
0.0799999982 -0.0250000004 0
0.0766666681 -0.0250000004 0
0.0733333305 -0.0250000004 0
0.0700000003 -0.0250000004 0
0.0666666701 -0.0250000004 0
0.0633333325 -0.0250000004 0
0.0599999987 -0.0250000004 0
0.0566666685 -0.0250000004 0
0.0533333346 -0.0250000004 0
0.0500000007 -0.0250000004 0
0.0466666669 -0.0250000004 0
0.043333333 -0.0250000004 0
0.0399999991 -0.0250000004 0
0.0366666652 -0.0250000004 0
0.0333333351 -0.0250000004 0
0.0299999993 -0.0250000004 0
0.0266666673 -0.0250000004 0
0.0233333334 -0.0250000004 0
0.0199999996 -0.0250000004 0
0.0166666675 -0.0250000004 0
0.0133333337 -0.0250000004 0
0.00999999978 -0.0250000004 0
0.00666666683 -0.0250000004 0
0.00333333341 -0.0250000004 0
0.0 -0.0250000004 0
0.100000001 -0.0283333343 0
0.0966666639 -0.0283333343 0
0.0933333337 -0.0283333343 0
0.0900000036 -0.0283333343 0
0.086666666 -0.0283333343 0
0.0833333358 -0.0283333343 0
0.0799999982 -0.0283333343 0
0.0766666681 -0.0283333343 0
0.0733333305 -0.0283333343 0
0.0700000003 -0.0283333343 0
0.0666666701 -0.0283333343 0
0.0633333325 -0.0283333343 0
0.0599999987 -0.0283333343 0
0.0566666685 -0.0283333343 0
0.0533333346 -0.0283333343 0
0.0500000007 -0.0283333343 0
0.0466666669 -0.0283333343 0
0.043333333 -0.0283333343 0
0.0399999991 -0.0283333343 0
0.0366666652 -0.0283333343 0
0.0333333351 -0.0283333343 0
0.0299999993 -0.0283333343 0
0.0266666673 -0.0283333343 0
0.0233333334 -0.0283333343 0
0.0199999996 -0.0283333343 0
0.0166666675 -0.0283333343 0
0.0133333337 -0.0283333343 0
0.00999999978 -0.0283333343 0
0.00666666683 -0.0283333343 0
0.00333333341 -0.0283333343 0
0.0 -0.0283333343 0
[...]
POINT_DATA 961
SCALARS Temp float 1
LOOKUP_TABLE default
341.0846585343215
309.9524768074806
285.19866760184925
266.39017006884916
252.75370950386525
243.32813107112483
237.11878212061336
233.2194312501524
230.88377397289602
229.54812059829104
228.81807829216783
228.43625828690492
228.24516557377513
228.15423834830526
228.11489422950592
228.10402684480906
228.11489422633878
228.15423833995786
228.24516570294367
228.43625856300892
228.81807764019686
229.5481210154988
230.88377568818586
233.21943083947755
237.11878688887387
243.32812583990773
252.7537139625807
266.3901586052985
285.1986706379423
309.9525075965311
341.0846583799495
309.95250968531474
277.6917362743857
252.04019627954983
232.5492183064791
218.41762093208192
208.6495329826663
202.2143434587016
198.17302637727641
195.7522399043022
194.36784784379924
193.61113288750502
193.21534485501454
193.0172523003707
192.9229901041355
192.8822013401736
192.87093464843812
192.88220133689006
192.92299009548168
193.0172524342734
193.2153451412244
193.61113221169688
194.3678482762401
195.75224168214277
198.17302595163218
202.21434840046732
208.64952756125544
218.4176255527493
232.54920642682316
252.04019942578142
277.69176817981673
309.9525095253691
285.1986723079804
252.04016613775727
225.67378104295244
205.63860958492924
191.11152953236092
181.06931524907694
174.45295695758978
170.2974613564306
167.8080161076278
166.3841970719834
165.60583724476584
165.19867709948952
164.99486670459868
164.89787153520302
164.85589557573354
164.84430016578207
164.85589557235437
164.8978715262975
164.99486684237388
165.1986773939378
165.60583654957907
166.38419751676662
167.80801793598278
170.29746091871039
174.45296203870257
181.0693096752387
191.11153428250222
205.63859737319024
225.6737842769471
252.0401989316751
285.1986721436484
266.3901587875556
232.5491708753823
205.63859245090615
185.18839354540717
170.3590275799736
160.10673270763206
153.35111377718238
149.1075563547601
146.56496320314656
145.11050495439306
144.31525558207096
143.89918410822168
143.69087389637411
143.59171896259406
143.54880141144528
143.53694470362723
143.5488014079897
143.59171895348896
143.69087403720235
143.89918440913635
144.3152548717275
145.1105054087874
146.56496507067092
149.1075559076895
153.35111896557123
160.10672701677288
170.35903242919505
185.1883810801159
205.6385957517751
232.5492043452194
266.3901586199353
252.75371428478815
218.41758962237915
191.11152943404576
170.35904522885716
155.30890283213026
144.90267402687178
138.04463292241576
133.73603959434584
131.15401796677432
129.6767199486993
128.86881662319865
128.44603368401513
128.2343165415274
128.1335179936881
128.08988068949597
128.07782369702363
128.08988068598194
128.13351798443034
128.23431668467214
128.44603398981027
128.8688159014669
129.6767204102758
131.1540198634185
133.73603914033623
138.04463818985084
144.9026682500801
155.3089077538217
170.35903257863004
191.11153278357028
218.41762358301094
252.7537141148242
243.32812811522848
208.6494932922309
181.06930685562065
160.1067420680288
144.90266543112526
134.3886934614291
127.45864721062134
123.10410719758845
120.49408084840832
119.00046768347856
118.18347092022069
117.75583499727139
117.54163885510384
117.43963706882656
117.39547007994119
117.38326521452751
117.39547007638394
117.43963705945671
117.54163899993881
117.75583530660433
118.18347019027695
119.00046815020096
120.49408276578714
123.10410673864865
127.45865253375148
134.38868762433594
144.90267040343355
160.1067292890614
181.06931023891707
208.6495275927133
243.32812794367788
237.11878708876836
202.21431174111294
174.4529569732348
153.35113184338974
138.04463304308962
127.45865607821531
120.48024516108549
116.09466944576242
113.46561038424451
111.96083612625264
111.13757557905063
110.70657288437715
110.49064446922955
110.38779598160447
110.34325400227532
110.33094406022522
110.34325399868749
110.38779597215539
110.49064461524932
110.70657319617129
111.13757484342776
111.96083659650736
113.46561231575599
116.09466898347098
120.48025052172076
127.45865020070421
138.04463804914374
153.35111897891906
174.45296037888613
202.21434626594268
237.11878691619782
233.2194318430021
198.17298997448745
170.29745668796565
149.10756971367155
133.73603485890402
123.10411119569292
116.09466450213134
111.68904767310741
109.04761387563707
107.53552943730129
106.70813447688101
106.27489168167814
106.05780129844837
105.9543803786985
105.90958315287062
105.89720138935319
105.90958314926183
105.95438036919552
106.05780144526541
106.27489199511534
106.70813373749327
107.53552990987866
109.04761581636724
111.68904720863611
116.09466988690248
123.10410529230674
133.73603988643373
149.10755679501827
170.29746010773107
198.17302464052756
233.2194316698086
230.88377634172488
195.75220525180595
167.808013319221
146.56497852824256
131.15401518157915
120.49408684134579
113.46560742580513
109.04761588408694
106.39848366204234
104.8818148048094
104.05180495340056
103.61713283446365
103.39929438876827
103.29550173709212
103.25053751548207
103.23810854737533
103.25053751185952
103.2955017275539
103.39929453610074
103.61713314895287
104.05180421161984
104.88181527884942
106.39848560852809
109.04761541825913
113.46561282542359
120.4940809221326
131.15402022216006
146.56496557681336
167.80801674748977
195.75224000264157
230.88377616816948
229.54812089690788
194.36781099373022
166.38419206939196
145.11051804427996
129.6767148664121
119.00047136769848
111.96083082772715
107.53552910255308
104.88181245105146
103.36238986521245
102.53079489983324
102.09524806522285
101.87694737522364
101.77292285928138
101.72785363288986
101.71539483668629
101.72785362925849
101.77292284972101
101.87694752287577
102.09524838035836
102.53079415659425
103.36239034013516
104.88181440097787
107.53552863591727
111.96083623608149
119.00046543922971
129.67671991457271
145.11050507390925
166.38419550255423
194.3678457931869
229.54812072315275
228.8180779557486
193.61109535076156
165.6058315609343
144.3152679904617
128.86881083354592
118.18347389656635
111.13756955909935
106.70813342156919
104.05180187468667
102.53079417584448
101.69827789462587
101.26221748704039
101.04364259362833
100.93947915722481
100.8943464769009
100.88186956149586
100.89434647326419
100.93947914765101
101.04364274147089
101.2622178025569
101.69827715053455
102.53079465127757
104.05180382658354
106.7081329544725
111.13757497237371
118.18346796291847
128.86881588591734
144.31525500962326
165.60583499678884
193.61113017686853
228.8180777818883
228.43625865471853
193.215308033351
165.19867216442657
143.89919728943664
128.4460286716817
117.75583876382794
110.70656765647827
106.27489142494808
103.61713055579663
102.09524814417799
101.26221829137775
100.82586856520555
100.6071375309503
100.50289415957495
100.45772464045866
100.4452371486212
100.45772463681882
100.50289414999345
100.60713767890186
100.82586888093768
101.26221754680842
102.09524861989416
103.61713250877517
106.27489095759931
110.70657307240674
117.7558328274047
128.44603372629277
143.89918430306062
165.1986756016986
193.21534287343715
228.4362584808053
228.24516584076775
193.01721536671837
164.99486166094084
143.6908869705229
128.234311416392
117.54164250962592
110.4906391261913
106.05780092725436
103.39929199466641
101.87694733920516
101.04364328310808
100.6071374157372
100.38832118566306
100.2840337336023
100.23884371458186
100.22635030487378
100.23884371094033
100.28403372401637
100.38832133367441
100.60713773158608
101.04364253828203
101.87694781507167
103.39929394821353
106.0578004597738
110.49064454349055
117.54163657177942
128.2343164721435
143.69087398134315
164.99486509892742
193.0172502138219
228.24516566682928
228.15423849829793
192.92295304562407
164.89786636622193
143.59173191050866
128.13351273829682
117.43964059254233
110.38779050558921
105.95437987441524
103.29549920912754
101.77292268944893
100.93947971284096
100.50289391025348
100.28403359945851
100.17972310484541
100.13452227601792
100.12202572934488
100.13452227237545
100.17972309525723
100.28403374750084
100.50289422616244
100.93947896788404
101.7729231653913
103.29550116295849
105.95437940686911
110.38779592356099
117.43963465400226
128.13351779460007
143.59171891997974
164.89786980455085
192.92298789607634
228.15423832434794
228.11489439735098
192.88216429862115
164.85589042556984
143.5488143794145
128.0898754536449
117.39547362386956
110.34324854615676
105.90958266887102
103.25053500773889
101.72785348347905
100.89434705302418
100.45772441159403
100.23884360091293
100.13452229651084
100.08931635906528
100.07681832333536
100.08931635542237
100.1345222869216
100.23884374896971
100.45772472753073
100.8943463080072
101.72785395945596
103.25053696169778
105.90958220129555
110.34325396442728
117.39546768502308
128.0898805101902
143.54880138829628
164.85589386404772
192.88219915052585
228.11489422339622
228.1040270278465
192.870897622208
164.84429503176545
143.53695768833424
128.0778184779571
117.38326877556837
110.33093862123022
105.89720092265412
103.23810605696004
101.71539470468869
100.8818701550741
100.4452369372072
100.22635020866632
100.12202576730755
100.07681834080651
100.064319869904
100.0768183371635
100.12202575771796
100.22635035672741
100.44523725315192
100.88186941003991
101.71539518067536
103.23810801095513
105.89720045507046
110.33094403958465
117.38326283663612
128.07782353456992
143.53694469705212
164.84429847028468
192.87093247451466
228.10402685389062
228.11489440472204
192.88216430626298
164.85589043343398
143.5488143874551
128.08987546182027
117.39547363214425
110.34324855450156
105.90958267726366
103.25053501616287
101.72785349192264
100.89434706147962
100.45772442005631
100.23884360937916
100.13452230497904
100.0893163675345
100.07681833180479
100.08931636389156
100.13452229538986
100.238843757436
100.45772473599317
100.89434631646269
101.72785396789952
103.25053697012173
105.90958220968824
110.34325397277215
117.39546769329775
128.08988051836562
143.5488013963369
164.85589387191186
192.8821991581677
228.11489423076736
228.15423851608443
192.9229530640631
164.89786638519618
143.5917319299063
128.13351275801722
117.4396406124993
110.38779052571294
105.95437989465191
103.29549922943781
101.77292270980514
100.93947973322489
100.50289393065333
100.28403361986724
100.1797231252588
100.13452229643347
100.12202574976102
100.134522292791
100.17972311567061
100.28403376790968
100.50289424656248
100.93947898826809
101.77292318574767
103.2955011832689
105.95437942710605
110.3877959436848
117.43963467395918
128.1335178143204
143.5917189393775
164.897869823525
192.9229879145152
228.1542383421344
228.24516587876013
193.01721540610305
164.99486170146372
143.69088701194295
128.23431145849233
117.54164255222217
110.49063916913497
106.05780097043174
103.39929203799447
101.87694738262672
101.04364332658534
100.60713745924633
100.38832122918953
100.28403377713782
100.23884375812165
100.22635034841488
100.23884375448017
100.28403376755206
100.38832137720098
100.60713777509531
101.04364258175927
101.87694785849331
103.39929399154181
106.05780050295127
110.4906445864344
117.54163661437579
128.2343165142439
143.6908740227632
164.99486513945035
193.0172502532064
228.2451657048215
228.43625873979482
193.21530812154091
165.19867225515435
143.899197382156
128.44602876590346
117.75583885913836
110.70656775254592
106.27489152152098
103.61713065269275
102.09524824127269
101.26221838858956
100.82586866248351
100.60713762826408
100.50289425690717
100.45772473779942
100.44523724596445
100.45772473415964
100.50289424732561
100.60713777621571
100.82586897821567
101.2622176440202
102.09524871698899
103.61713260567153
106.27489105417236
110.7065731684747
117.75583292271556
128.4460338205148
143.89918439577986
165.19867569242643
193.21534296162721
228.43625856588164
228.8180784228876
193.61109583497725
165.60583205902714
144.3152684994023
128.86881135063217
118.18347441952191
111.13757008611043
106.70813395126628
104.05180240608901
102.53079470828492
101.6982784276724
101.2622180204263
101.04364312719625
100.93947969088553
100.89434701060411
100.88187009521123
100.89434700696741
100.93947968131181
101.04364327503883
101.26221833594283
101.69827768358103
102.53079518371807
104.05180435798604
106.70813348416971
111.13757549938495
118.18346848587424
128.86881640300373
144.3152555185637
165.60583549488132
193.61113066108402
228.81807824902705
229.54812064590084
194.36781073355567
166.38419180178337
145.11051777087633
129.67671458867233
119.00047108684714
111.9608305447362
107.53552881815271
104.88181216576166
103.36238957938455
102.53079461369343
102.09524777890968
101.87694708881807
101.7729225728293
101.72785334641644
101.71539455020687
101.72785334278514
101.77292256326892
101.87694723647029
102.0952480940451
102.53079387045447
103.36239005430721
104.88181411568794
107.53552835151693
111.96083595309065
119.0004651583785
129.67671963683284
145.11050480050545
166.3841952349452
194.36784553301158
229.54812047214557
230.88377783711994
195.7522068017343
167.80801491319235
146.56498015636808
131.15401683509853
120.4940885129492
113.46560910973604
109.0476175760602
106.39848535903744
104.881816504807
104.051806655118
103.61713453712532
103.39929609192635
103.29550344049795
103.25053921899959
103.2381102509245
103.25053921537709
103.29550343095971
103.3992962392588
103.61713485161457
104.05180591333723
104.88181697884693
106.39848730552309
109.04761711023228
113.46561450935455
120.49408259373597
131.15402187567935
146.56496720493868
167.80801834146092
195.7522415525698
230.88377766356442
233.21943105301412
198.17298915571496
170.29745584599732
149.10756885376628
133.73603398570938
123.10411031307405
116.09466361311902
111.68904677994672
109.04761297990142
107.53552854003601
106.7081335787456
106.27489078306839
106.05780039959092
105.95437947971845
105.90958225383552
105.89720049030252
105.90958225022678
105.9543794702155
106.05780054640807
106.27489109650551
106.70813283935776
107.53552901261338
109.04761492063157
111.68904631547532
116.09466899789014
123.10410440968772
133.73603901323906
149.10755593511286
170.29745926576254
198.17302382175535
233.2194308798204
237.1187927187333
202.21431757594326
174.4529629726082
153.35113796944572
138.04463926250065
127.45866236341014
120.48025149058459
116.09467580377668
113.46561675980315
111.96084251213568
111.13758197074925
110.70657927921361
110.49065086568663
110.3878023788567
110.34326039988085
110.3309504579301
110.3432603962931
110.38780236940775
110.4906510117064
110.70657959100768
111.13758123512649
111.96084298239045
113.46561869131463
116.09467534148541
120.48025685121988
127.45865648589917
138.04464426855486
153.35112510497513
174.45296637825965
202.21435210077303
237.11879254616284
243.3281302177791
208.64949547120503
181.0693090958017
160.10674435515838
144.90266775269416
134.3886958071351
127.45864957248328
123.10410956977739
120.49408322690414
119.00047006565627
118.18347330445525
117.75583738260599
117.5416412410017
117.43963945499848
117.39547246623398
117.38326760085418
117.39547246267684
117.43963944562873
117.54164138583671
117.75583769193875
118.1834725745113
119.00047053237871
120.49408514428299
123.10410911083784
127.45865489561366
134.38868997004232
144.90267272500265
160.10673157619112
181.06931247909813
208.64952977168764
243.32813004622892
252.75370806461885
218.41758317625624
191.1115228072404
170.3590384637417
155.30889596581298
144.90266708983904
138.04462593821458
133.73603258011116
131.15401093427718
129.67671290558943
128.8688095741892
128.4460266318659
128.23430948777852
128.13351093916498
128.08987363463294
128.07781664206578
128.08987363111896
128.13351092990737
128.23430963092335
128.44602693766075
128.86880885245733
129.6767133671658
131.15401283092118
133.73603212610158
138.04463120564995
144.90266131304756
155.30890088750476
170.35902581351468
191.11152615676517
218.41761713688842
252.75370789465526
266.39016787541044
232.54918029310164
205.63860213186598
185.1884034273409
170.3590376084803
160.1067428381622
153.35112397546374
149.10756659596933
146.56497347032007
145.1105152365692
144.31526587253703
143.89919440307284
143.69088419344502
143.59172926073273
143.54881171005061
143.5369550023622
143.54881170659505
143.59172925162764
143.690884334273
143.89919470398732
144.31526516219338
145.1105156909632
146.564975337844
149.10756614889837
153.3511291638523
160.10673714730305
170.35904245770172
185.18839096205002
205.63860543273512
232.5492137629387
266.39016770779045
285.1986645087379
252.04015805559038
225.67377273534748
205.63860110555282
191.11152092801694
181.06930655800107
174.45294820910925
170.29745257171265
167.80800730108066
166.3841882528774
165.60582841875183
165.19866826983827
164.9948578731148
164.89786270284162
164.85588674299012
164.84429133293273
164.85588673961084
164.89786269393605
164.99485801088974
165.1986685642863
165.6058277235644
166.38418869766028
167.80800912943522
170.29745213399204
174.4529532902218
181.0693009841627
191.1115256781582
205.63858889381382
225.67377596934253
252.040190849509
285.1986643444061
309.95253542924695
277.69176295176294
252.04022369980927
232.5492462918772
218.4176493278261
208.64956166254555
202.21437232614238
198.1730553627689
195.75226896068062
194.36787694082093
193.61116200680357
193.21537398599756
193.01728143721863
192.92301924378208
192.88223048103404
192.87096378963435
192.8822304777505
192.9230192351282
193.01728157112112
193.215374272207
193.61116133099497
194.3678773732613
195.7522707385204
198.17305493712414
202.2143772679074
208.6495562411345
218.4176539484933
232.5492344122216
252.04022684604098
277.6917948571934
309.95253526930185
341.08465845165824
309.9524767218341
285.1986675138578
266.3901699791028
252.75370941287068
243.3281309792875
237.11878202823542
233.21943115744548
230.88377387999907
229.54812050528963
228.81807819911145
228.43625819382095
228.245165480678
228.1542382552022
228.11489413640035
228.1040267517028
228.11489413323324
228.15423824685467
228.24516560984634
228.43625846992464
228.8180775471399
229.54812092249696
230.8837755952886
233.21943074677014
237.11878679649539
243.32812574806994
252.75371387158597
266.3901585155523
285.1986705499511
309.9525075108851
341.08465829728647
