# vtk DataFile Version 2.0
Unstructured Grid Example
ASCII
DATASET UNSTRUCTURED_GRID

POINTS 961 float
0.100000001 0.00499999989 0
0.0966666639 0.00499999989 0
0.0933333337 0.00499999989 0
0.0900000036 0.00499999989 0
0.086666666 0.00499999989 0
0.0833333358 0.00499999989 0
0.0799999982 0.00499999989 0
0.0766666681 0.00499999989 0
0.0733333305 0.00499999989 0
0.0700000003 0.00499999989 0
0.0666666701 0.00499999989 0
0.0633333325 0.00499999989 0
0.0599999987 0.00499999989 0
0.0566666685 0.00499999989 0
0.0533333346 0.00499999989 0
0.0500000007 0.00499999989 0
0.0466666669 0.00499999989 0
0.043333333 0.00499999989 0
0.0399999991 0.00499999989 0
0.0366666652 0.00499999989 0
0.0333333351 0.00499999989 0
0.0299999993 0.00499999989 0
0.0266666673 0.00499999989 0
0.0233333334 0.00499999989 0
0.0199999996 0.00499999989 0
0.0166666675 0.00499999989 0
0.0133333337 0.00499999989 0
0.00999999978 0.00499999989 0
0.00666666683 0.00499999989 0
0.00333333341 0.00499999989 0
0.0 0.00499999989 0
0.100000001 0.00166666671 0
0.0966666639 0.00166666671 0
0.0933333337 0.00166666671 0
0.0900000036 0.00166666671 0
0.086666666 0.00166666671 0
0.0833333358 0.00166666671 0
0.0799999982 0.00166666671 0
0.0766666681 0.00166666671 0
0.0733333305 0.00166666671 0
0.0700000003 0.00166666671 0
0.0666666701 0.00166666671 0
0.0633333325 0.00166666671 0
0.0599999987 0.00166666671 0
0.0566666685 0.00166666671 0
0.0533333346 0.00166666671 0
0.0500000007 0.00166666671 0
0.0466666669 0.00166666671 0
0.043333333 0.00166666671 0
0.0399999991 0.00166666671 0
0.0366666652 0.00166666671 0
0.0333333351 0.00166666671 0
0.0299999993 0.00166666671 0
0.0266666673 0.00166666671 0
0.0233333334 0.00166666671 0
0.0199999996 0.00166666671 0
0.0166666675 0.00166666671 0
0.0133333337 0.00166666671 0
0.00999999978 0.00166666671 0
0.00666666683 0.00166666671 0
0.00333333341 0.00166666671 0
0.0 0.00166666671 0
0.100000001 -0.00166666671 0
0.0966666639 -0.00166666671 0
0.0933333337 -0.00166666671 0
0.0900000036 -0.00166666671 0
0.086666666 -0.00166666671 0
0.0833333358 -0.00166666671 0
0.0799999982 -0.00166666671 0
0.0766666681 -0.00166666671 0
0.0733333305 -0.00166666671 0
0.0700000003 -0.00166666671 0
0.0666666701 -0.00166666671 0
0.0633333325 -0.00166666671 0
0.0599999987 -0.00166666671 0
0.0566666685 -0.00166666671 0
0.0533333346 -0.00166666671 0
0.0500000007 -0.00166666671 0
0.0466666669 -0.00166666671 0
0.043333333 -0.00166666671 0
0.0399999991 -0.00166666671 0
0.0366666652 -0.00166666671 0
0.0333333351 -0.00166666671 0
0.0299999993 -0.00166666671 0
0.0266666673 -0.00166666671 0
0.0233333334 -0.00166666671 0
0.0199999996 -0.00166666671 0
0.0166666675 -0.00166666671 0
0.0133333337 -0.00166666671 0
0.00999999978 -0.00166666671 0
0.00666666683 -0.00166666671 0
0.00333333341 -0.00166666671 0
0.0 -0.00166666671 0
0.100000001 -0.00499999989 0
0.0966666639 -0.00499999989 0
0.0933333337 -0.00499999989 0
0.0900000036 -0.00499999989 0
0.086666666 -0.00499999989 0
0.0833333358 -0.00499999989 0
0.0799999982 -0.00499999989 0
0.0766666681 -0.00499999989 0
0.0733333305 -0.00499999989 0
0.0700000003 -0.00499999989 0
0.0666666701 -0.00499999989 0
0.0633333325 -0.00499999989 0
0.0599999987 -0.00499999989 0
0.0566666685 -0.00499999989 0
0.0533333346 -0.00499999989 0
0.0500000007 -0.00499999989 0
0.0466666669 -0.00499999989 0
0.043333333 -0.00499999989 0
0.0399999991 -0.00499999989 0
0.0366666652 -0.00499999989 0
0.0333333351 -0.00499999989 0
0.0299999993 -0.00499999989 0
0.0266666673 -0.00499999989 0
0.0233333334 -0.00499999989 0
0.0199999996 -0.00499999989 0
0.0166666675 -0.00499999989 0
0.0133333337 -0.00499999989 0
0.00999999978 -0.00499999989 0
0.00666666683 -0.00499999989 0
0.00333333341 -0.00499999989 0
0.0 -0.00499999989 0
0.100000001 -0.00833333377 0
0.0966666639 -0.00833333377 0
0.0933333337 -0.00833333377 0
0.0900000036 -0.00833333377 0
0.086666666 -0.00833333377 0
0.0833333358 -0.00833333377 0
0.0799999982 -0.00833333377 0
0.0766666681 -0.00833333377 0
0.0733333305 -0.00833333377 0
0.0700000003 -0.00833333377 0
0.0666666701 -0.00833333377 0
0.0633333325 -0.00833333377 0
0.0599999987 -0.00833333377 0
0.0566666685 -0.00833333377 0
0.0533333346 -0.00833333377 0
0.0500000007 -0.00833333377 0
0.0466666669 -0.00833333377 0
0.043333333 -0.00833333377 0
0.0399999991 -0.00833333377 0
0.0366666652 -0.00833333377 0
0.0333333351 -0.00833333377 0
0.0299999993 -0.00833333377 0
0.0266666673 -0.00833333377 0
0.0233333334 -0.00833333377 0
0.0199999996 -0.00833333377 0
0.0166666675 -0.00833333377 0
0.0133333337 -0.00833333377 0
0.00999999978 -0.00833333377 0
0.00666666683 -0.00833333377 0
0.00333333341 -0.00833333377 0
0.0 -0.00833333377 0
0.100000001 -0.0116666667 0
0.0966666639 -0.0116666667 0
0.0933333337 -0.0116666667 0
0.0900000036 -0.0116666667 0
0.086666666 -0.0116666667 0
0.0833333358 -0.0116666667 0
0.0799999982 -0.0116666667 0
0.0766666681 -0.0116666667 0
0.0733333305 -0.0116666667 0
0.0700000003 -0.0116666667 0
0.0666666701 -0.0116666667 0
0.0633333325 -0.0116666667 0
0.0599999987 -0.0116666667 0
0.0566666685 -0.0116666667 0
0.0533333346 -0.0116666667 0
0.0500000007 -0.0116666667 0
0.0466666669 -0.0116666667 0
0.043333333 -0.0116666667 0
0.0399999991 -0.0116666667 0
0.0366666652 -0.0116666667 0
0.0333333351 -0.0116666667 0
0.0299999993 -0.0116666667 0
0.0266666673 -0.0116666667 0
0.0233333334 -0.0116666667 0
0.0199999996 -0.0116666667 0
0.0166666675 -0.0116666667 0
0.0133333337 -0.0116666667 0
0.00999999978 -0.0116666667 0
0.00666666683 -0.0116666667 0
0.00333333341 -0.0116666667 0
0.0 -0.0116666667 0
0.100000001 -0.0149999997 0
0.0966666639 -0.0149999997 0
0.0933333337 -0.0149999997 0
0.0900000036 -0.0149999997 0
0.086666666 -0.0149999997 0
0.0833333358 -0.0149999997 0
0.0799999982 -0.0149999997 0
0.0766666681 -0.0149999997 0
0.0733333305 -0.0149999997 0
0.0700000003 -0.0149999997 0
0.0666666701 -0.0149999997 0
0.0633333325 -0.0149999997 0
0.0599999987 -0.0149999997 0
0.0566666685 -0.0149999997 0
0.0533333346 -0.0149999997 0
0.0500000007 -0.0149999997 0
0.0466666669 -0.0149999997 0
0.043333333 -0.0149999997 0
0.0399999991 -0.0149999997 0
0.0366666652 -0.0149999997 0
0.0333333351 -0.0149999997 0
0.0299999993 -0.0149999997 0
0.0266666673 -0.0149999997 0
0.0233333334 -0.0149999997 0
0.0199999996 -0.0149999997 0
0.0166666675 -0.0149999997 0
0.0133333337 -0.0149999997 0
0.00999999978 -0.0149999997 0
0.00666666683 -0.0149999997 0
0.00333333341 -0.0149999997 0
0.0 -0.0149999997 0
0.100000001 -0.0183333326 0
0.0966666639 -0.0183333326 0
0.0933333337 -0.0183333326 0
0.0900000036 -0.0183333326 0
0.086666666 -0.0183333326 0
0.0833333358 -0.0183333326 0
0.0799999982 -0.0183333326 0
0.0766666681 -0.0183333326 0
0.0733333305 -0.0183333326 0
0.0700000003 -0.0183333326 0
0.0666666701 -0.0183333326 0
0.0633333325 -0.0183333326 0
0.0599999987 -0.0183333326 0
0.0566666685 -0.0183333326 0
0.0533333346 -0.0183333326 0
0.0500000007 -0.0183333326 0
0.0466666669 -0.0183333326 0
0.043333333 -0.0183333326 0
0.0399999991 -0.0183333326 0
0.0366666652 -0.0183333326 0
0.0333333351 -0.0183333326 0
0.0299999993 -0.0183333326 0
0.0266666673 -0.0183333326 0
0.0233333334 -0.0183333326 0
0.0199999996 -0.0183333326 0
0.0166666675 -0.0183333326 0
0.0133333337 -0.0183333326 0
0.00999999978 -0.0183333326 0
0.00666666683 -0.0183333326 0
0.00333333341 -0.0183333326 0
0.0 -0.0183333326 0
0.100000001 -0.0216666665 0
0.0966666639 -0.0216666665 0
0.0933333337 -0.0216666665 0
0.0900000036 -0.0216666665 0
0.086666666 -0.0216666665 0
0.0833333358 -0.0216666665 0
0.0799999982 -0.0216666665 0
0.0766666681 -0.0216666665 0
0.0733333305 -0.0216666665 0
0.0700000003 -0.0216666665 0
0.0666666701 -0.0216666665 0
0.0633333325 -0.0216666665 0
0.0599999987 -0.0216666665 0
0.0566666685 -0.0216666665 0
0.0533333346 -0.0216666665 0
0.0500000007 -0.0216666665 0
0.0466666669 -0.0216666665 0
0.043333333 -0.0216666665 0
0.0399999991 -0.0216666665 0
0.0366666652 -0.0216666665 0
0.0333333351 -0.0216666665 0
0.0299999993 -0.0216666665 0
0.0266666673 -0.0216666665 0
0.0233333334 -0.0216666665 0
0.0199999996 -0.0216666665 0
0.0166666675 -0.0216666665 0
0.0133333337 -0.0216666665 0
0.00999999978 -0.0216666665 0
0.00666666683 -0.0216666665 0
0.00333333341 -0.0216666665 0
0.0 -0.0216666665 0
0.100000001 -0.0250000004 0
0.0966666639 -0.0250000004 0
0.0933333337 -0.0250000004 0
0.0900000036 -0.0250000004 0
0.086666666 -0.0250000004 0
0.0833333358 -0.0250000004 0
0.0799999982 -0.0250000004 0
0.0766666681 -0.0250000004 0
0.0733333305 -0.0250000004 0
0.0700000003 -0.0250000004 0
0.0666666701 -0.0250000004 0
0.0633333325 -0.0250000004 0
0.0599999987 -0.0250000004 0
0.0566666685 -0.0250000004 0
0.0533333346 -0.0250000004 0
0.0500000007 -0.0250000004 0
0.0466666669 -0.0250000004 0
0.043333333 -0.0250000004 0
0.0399999991 -0.0250000004 0
0.0366666652 -0.0250000004 0
0.0333333351 -0.0250000004 0
0.0299999993 -0.0250000004 0
0.0266666673 -0.0250000004 0
0.0233333334 -0.0250000004 0
0.0199999996 -0.0250000004 0
0.0166666675 -0.0250000004 0
0.0133333337 -0.0250000004 0
0.00999999978 -0.0250000004 0
0.00666666683 -0.0250000004 0
0.00333333341 -0.0250000004 0
0.0 -0.0250000004 0
0.100000001 -0.0283333343 0
0.0966666639 -0.0283333343 0
0.0933333337 -0.0283333343 0
0.0900000036 -0.0283333343 0
0.086666666 -0.0283333343 0
0.0833333358 -0.0283333343 0
0.0799999982 -0.0283333343 0
0.0766666681 -0.0283333343 0
0.0733333305 -0.0283333343 0
0.0700000003 -0.0283333343 0
0.0666666701 -0.0283333343 0
0.0633333325 -0.0283333343 0
0.0599999987 -0.0283333343 0
0.0566666685 -0.0283333343 0
0.0533333346 -0.0283333343 0
0.0500000007 -0.0283333343 0
0.0466666669 -0.0283333343 0
0.043333333 -0.0283333343 0
0.0399999991 -0.0283333343 0
0.0366666652 -0.0283333343 0
0.0333333351 -0.0283333343 0
0.0299999993 -0.0283333343 0
0.0266666673 -0.0283333343 0
0.0233333334 -0.0283333343 0
0.0199999996 -0.0283333343 0
0.0166666675 -0.0283333343 0
0.0133333337 -0.0283333343 0
0.00999999978 -0.0283333343 0
0.00666666683 -0.0283333343 0
0.00333333341 -0.0283333343 0
0.0 -0.0283333343 0
[...]
POINT_DATA 961
SCALARS Temp float 1
LOOKUP_TABLE default
238.60706480588078
207.15513775945047
188.36188058347852
178.69534009176482
174.3639978718844
172.64350465653587
172.02625176046746
171.82279113264553
171.76027306960896
171.7421529818896
171.73715197942042
171.73582770790685
171.73548922334786
171.73540534882397
171.73538533181235
171.7353816550011
171.73538533181116
171.73540534881877
171.73548922352563
171.73582770865704
171.73715197619015
171.74215298604
171.7602731048519
171.82279112250643
172.02625212152978
172.64350398763912
174.36399898756991
178.69533559259295
188.36188257393056
207.1551650056343
238.60706462388964
207.15516690022943
174.67180736930953
155.25795011241112
145.26929421972244
140.7921638585623
139.01317492061418
138.3747356246556
138.16423078329382
138.09953135954925
138.08077464383058
138.07559685110436
138.0742255069847
138.07387493112884
138.0737880471336
138.07376730908638
138.0737634994636
138.0737673090852
138.07378804712823
138.0738749313129
138.07422550776155
138.07559684775956
138.0807746481267
138.09953139602496
138.16423077280137
138.3747359981529
139.01317422886316
140.79216501195978
145.2692895697797
155.2579521687956
174.67183551164135
207.1551667117538
188.36188370719734
155.2579226575638
135.46314205238968
125.2715739325268
120.69992697296226
118.88190879349555
118.22894779478658
118.01349574951563
117.94723088620066
117.92800850856307
117.92269921066868
117.9212923271439
117.92093250105893
117.92084328744971
117.9208219854769
117.92081807122375
117.92082198547561
117.92084328744426
117.92093250124788
117.92129232794093
117.92269920723822
117.92800851296676
117.94723092356709
118.0134957387704
118.22894817688987
118.88190808627877
120.69992815110858
125.27156918605057
135.46314414960153
155.25795134370432
188.3618835139989
178.69533579011386
145.26925878541766
125.27156606716902
114.96814103281524
110.34233348921397
108.50105167120276
107.83910531168264
107.6204864458737
107.55318883645747
107.53365100016012
107.52825051809594
107.52681848253916
107.52645199051082
107.52636107104799
107.5263393503639
107.52633535766289
107.52633935036258
107.52636107104237
107.52645199070326
107.52681848335055
107.52825051460546
107.53365100463745
107.55318887441716
107.62048643496222
107.8391056991838
108.50105095458092
110.34233468178245
114.96813623192932
125.27156818638056
145.2692877569937
178.69533559401972
174.36399922411266
140.79213412737462
120.69992505647066
110.34233954977414
105.68909655158087
103.83545747207397
103.16851199442468
102.94805393502821
102.8801329421345
102.86039807787152
102.85493890924607
102.85349025303829
102.85311925251808
102.85302715538057
102.85300514045196
102.85300109193606
102.85300514045062
102.85302715537472
102.85311925271286
102.85349025385926
102.85493890571671
102.86039808239518
102.88013298045664
102.94805392401659
103.16851238498168
103.83545675032695
105.68909775160537
110.3423347218433
120.69992718606136
140.79216322977553
174.3639990265579
172.64350445809987
139.01314352905644
118.88190523192064
108.50105608456843
103.83545579865046
101.97595450989289
101.30650955392808
101.0850845445286
101.01682032084095
100.99697238534978
100.9914782775383
100.9900194001967
100.98964554664688
100.98955268520062
100.98953047509931
100.98952638899752
100.98953047509788
100.9895526851947
100.98964554684314
100.99001940102359
100.99147827398545
100.99697238990036
101.0168203593658
101.08508453346177
101.3065099460447
101.97595378564061
103.83545700210924
108.50105124469361
118.88190736585278
139.01317268462824
172.64350425993035
172.02625230632495
138.37470498197555
118.22894501785802
107.83911052767277
103.1685111234373
101.30651036149946
100.63593899608384
100.41405357992669
100.34561718254388
100.32570974861221
100.32019644743879
100.31873173595744
100.31835619761817
100.31826287104403
100.31824053904575
100.31823642904511
100.3182405390444
100.3182628710382
100.31835619781542
100.31873173678773
100.32019644387267
100.3257097531774
100.34561722117228
100.41405356883237
100.63593938891972
101.30650963614384
103.1685123283173
107.83910568305804
118.22894715342531
138.37473415704395
172.02625210793306
171.8227913353281
138.16419977858266
118.01349260851617
107.62049129523044
102.94805269225668
101.08508497965965
100.41405320625111
100.19196860443033
100.12345344462412
100.10351731935758
100.09799430344428
100.09652650692722
100.09615004209276
100.09605645066321
100.09603404713215
100.09602992281373
100.09603404713081
100.09605645065733
100.09615004229038
100.09652650775949
100.09799429987157
100.10351732392999
100.12345348330082
100.19196859332325
100.41405359938808
101.0850842538627
102.94805389767106
107.62048644890311
118.01349474464695
138.1642289602074
171.82279113686474
171.76027329397425
138.0995003750843
117.94722776792501
107.55319370976791
102.88013172280401
101.01682077984547
100.34561683260927
100.12345346851092
100.05490534154295
100.03495652101935
100.02942897504909
100.0279596686907
100.02758273007636
100.02748899776627
100.02746655486402
100.02746242247892
100.02746655486267
100.02748899776036
100.02758273027445
100.02795966952382
100.02942897147314
100.03495652559496
100.05490538024037
100.12345345739848
100.3456172258615
101.01682005388687
102.88013292840316
107.55318886286959
117.94722990423607
138.09952955876042
171.76027309549005
171.742153162955
138.08074361390297
117.92800534429198
107.53365582700539
102.86039681139195
100.99697279705056
100.32570935117384
100.1035172957193
100.03495647346195
100.01500248178908
100.00947298689086
100.00800299651102
100.00762583274442
100.00753203051049
100.00750956731281
100.00750543066053
100.00750956731144
100.0075320305047
100.00762583294252
100.0080029973446
100.00947298331353
100.01500248636616
100.03495651216754
100.10351728460475
100.32570974446674
100.996972071037
102.86039801705046
107.53365097992923
117.92800748065729
138.0807727981835
171.74215296446508
171.73715215668713
138.0755658170628
117.92269604234032
107.5282553408896
102.85493763859957
100.99147868507454
100.32019604579725
100.09799427560782
100.02942892328736
100.0094729826886
100.00394271178477
100.0024724341007
100.0020951708593
100.00200133625385
100.00197886326593
100.00197472449685
100.00197886326454
100.00200133624794
100.00209517105743
100.0024724349345
100.00394270820685
100.00947298726612
100.02942896199585
100.09799426449248
100.32019643910357
100.99147795904369
102.85493884427606
107.52825049376126
117.92269817872094
138.07559500151228
171.73715195819585
171.7358278882198
138.07419447604883
117.92128916204426
107.52682330863914
102.85348898571534
100.99001981108736
100.31873133767567
100.09652648246109
100.02795962030147
100.00800299568385
100.00247243747663
100.00100204758115
100.0006247434174
100.0005308948262
100.00050841742026
100.00050427766726
100.00050841741886
100.00053089482029
100.0006247436156
100.00100204841505
100.00247243389848
100.0080030002615
100.02795965901092
100.09652647134543
100.31873173098612
100.99001908505109
102.85349019139704
107.52681846149623
117.92129129842903
138.0742236605436
171.73582768972813
171.7354894032551
138.0738438997604
117.92092933552667
107.5264568161761
102.85311798474973
100.98964595709141
100.31835579888656
100.09615001717673
100.02758268123665
100.00762583146684
100.00209517378475
100.00062474296686
100.00024742308628
100.00015356884886
100.00013108957734
100.00012694939602
100.00013108957602
100.0001535688429
100.00024742328452
100.00062474380067
100.00209517020643
100.00762583604455
100.02758271994637
100.09615000606095
100.31835619219812
100.98964523105376
102.85311919043284
107.5264519690292
117.92093147191251
138.07387308426698
171.7354892047634
171.73540552858552
138.07375701561116
117.92084012176221
107.52636589655641
102.85302588745199
100.98955309548428
100.3182624721502
100.0960564255851
100.02748894876386
100.00753202907045
100.0020013390168
100.0005308942131
100.00015356868624
100.00005971231826
100.00003723231073
100.00003309195515
100.00003723230934
100.00005971231238
100.00015356888444
100.00053089504685
100.00200133543845
100.00753203364827
100.02748898747372
100.09605641446929
100.31826286546227
100.98955236944636
102.85302709313562
107.52636104940852
117.92084225814835
138.07378620012074
171.73540533009384
171.73538551158768
138.07373627757744
117.92081881980374
107.52634417588749
102.85300387253837
100.98953088539824
100.31824014016715
100.09603402206922
100.02746650587693
100.00750956588806
100.00197886604425
100.00050841682257
100.00013108943007
100.0000372323261
100.00001475205345
100.00001061163344
100.00001475205207
100.0000372323201
100.00013108962828
100.00050841765636
100.001978862466
100.00750957046581
100.02746654458687
100.0960340109535
100.31824053347927
100.98953015936019
102.85300507822197
107.5263393287393
117.92082095618997
138.07376546208755
171.73538531309612
171.73538183478186
138.07373246796018
117.92081490555653
107.52634018319239
102.85299982402853
100.98952679930267
100.31823603017257
100.09602989775694
100.02746237349811
100.00750542924204
100.00197472728149
100.00050427707576
100.000126949255
100.00003309197672
100.00001061163962
100.0000064712036
100.00001061163829
100.00003309197085
100.00012694945318
100.00050427790958
100.00197472370326
100.00750543381986
100.02746241220802
100.0960298866413
100.31823642348482
100.98952607326446
102.8530010297122
107.52633533604418
117.92081704194271
138.07376165247058
171.73538163629036
171.73538551159115
138.07373627758105
117.92081881980741
107.52634417589115
102.85300387254216
100.98953088540213
100.31824014017097
100.09603402207308
100.02746650588085
100.00750956589198
100.00197886604819
100.00050841682648
100.00013108943402
100.00003723232996
100.00001475205741
100.00001061163736
100.00001475205595
100.000037232324
100.00013108963223
100.00050841766033
100.00197886246997
100.00750957046978
100.02746654459087
100.0960340109574
100.31824053348316
100.98953015936402
102.85300507822578
107.52633932874303
117.92082095619365
138.07376546209127
171.7353853130995
171.73540552859916
138.07375701562526
117.92084012177656
107.52636589657105
102.85302588746687
100.98955309549926
100.31826247216527
100.0960564256001
100.02748894877902
100.00753202908561
100.002001339032
100.00053089422823
100.00015356870138
100.00005971233352
100.00003723232591
100.0000330919704
100.00003723232449
100.00005971232756
100.00015356889968
100.00053089506213
100.00200133545364
100.00753203366341
100.02748898748892
100.09605641448448
100.31826286547731
100.98955236946135
102.8530270931504
107.52636104942317
117.92084225816274
138.07378620013472
171.7354053301074
171.73548940330997
138.07384389981726
117.92092933558492
107.52645681623544
102.85311798480977
100.98964595715196
100.3183557989473
100.09615001723772
100.02758268129762
100.00762583152787
100.0020951738459
100.000624743028
100.00024742314739
100.00015356891001
100.0001310896384
100.00012694945721
100.00013108963732
100.0001535689041
100.00024742334574
100.0006247438619
100.00209517026767
100.00762583610569
100.02758272000756
100.09615000612202
100.318356192259
100.98964523111431
102.85311919049292
107.52645196908858
117.9209314719708
138.07387308432376
171.7354892048182
171.73582788845758
138.0741944762951
117.921289162297
107.52682330889635
102.8534889859755
100.99001981134931
100.31873133793877
100.09652648272484
100.02795962056547
100.00800299594803
100.00247243774079
100.00100204784547
100.0006247436817
100.00053089509049
100.00050841768459
100.00050427793164
100.00050841768326
100.00053089508454
100.00062474387995
100.00100204867934
100.00247243416268
100.00800300052575
100.02795965927501
100.09652647160925
100.31873173124933
100.99001908531335
102.85349019165722
107.52681846175335
117.92129129868172
138.07422366078995
171.735827689966
171.73715215914518
138.07556581960804
117.92269604495074
107.52825534354528
102.85493764128478
100.99147868777746
100.3201960485101
100.09799427832581
100.02942892600775
100.0094729854101
100.00394271450669
100.00247243682286
100.00209517358151
100.00200133897617
100.00197886598819
100.00197472721918
100.00197886598687
100.00200133897027
100.0020951737797
100.00247243765658
100.0039427109288
100.00947298998763
100.02942896471629
100.09799426721055
100.32019644181644
100.99147796174665
102.8549388469612
107.52825049641685
117.92269818133127
138.07559500405742
171.73715196065393
171.74215316079548
138.08074361166743
117.92800534200042
107.53365582467511
102.8603968090372
100.9969727946816
100.32570934879708
100.1035172933388
100.03495647107975
100.01500247940615
100.00947298450761
100.00800299412772
100.00762583036101
100.00753202812722
100.00750956492942
100.00750542827717
100.00750956492817
100.00753202812139
100.00762583055919
100.00800299496132
100.00947298093033
100.01500248398321
100.03495650978529
100.10351728222432
100.32570974209014
100.99697206866804
102.86039801469572
107.53365097759895
117.9280074783654
138.08077279594758
171.74215296230554
171.7602733240774
138.0995004062408
117.94722779984288
107.553193742193
102.88013175553947
101.01682081275462
100.34561686560723
100.12345350155039
100.05490537460018
100.0349565540836
100.0294290081159
100.02795970175836
100.02758276314438
100.02748903083425
100.02746658793201
100.02746245554695
100.02746658793075
100.02748903082838
100.02758276334235
100.02795970259147
100.02942900453994
100.03495655865922
100.05490541329762
100.1234534904379
100.34561725885943
101.01682008679597
102.8801329611385
107.55318889529465
117.94722993615386
138.09952958991698
171.76027312559333
171.8227913094366
138.16419975179065
118.01349258108438
107.62049126738182
102.94805266416022
101.08508495142914
100.41405317795459
100.19196857610405
100.12345341628559
100.10351729101441
100.09799427509955
100.09652647858191
100.09615001374712
100.09605642231763
100.0960340187864
100.096029894468
100.09603401878515
100.0960564223118
100.09615001394491
100.0965264794141
100.09799427152672
100.1035172955868
100.1234534549623
100.19196856499693
100.41405357109156
101.0850842256321
102.94805386957466
107.62048642105441
118.01349471721514
138.1642289334155
171.82279111097324
172.02625272816684
138.37470541834682
118.22894546428637
107.83911098041098
103.16851157974901
101.30651081963597
100.63593945506221
100.41405403925776
100.34561764201015
100.32571020812638
100.32019690696866
100.3187321954922
100.31835665715431
100.3182633305805
100.31824099858227
100.31823688858178
100.318240998581
100.31826333057468
100.3183566573515
100.31873219632242
100.32019690340253
100.32571021269162
100.34561768063855
100.4140540281634
100.6359398478981
101.30651009428033
103.16851278462906
107.83910613579621
118.22894759985367
138.37473459341527
172.0262525297749
172.64350479624056
139.01314387872011
118.88190558932276
108.50105644662324
103.83545616320201
101.97595487564155
101.3065099201924
101.08508491099424
101.01682068737892
100.99697275191166
100.9914786441078
100.99001976676821
100.98964591321898
100.98955305177284
100.9895308416716
100.98952675556983
100.98953084167029
100.98955305176703
100.98964591341532
100.99001976759506
100.99147864055479
100.99697275646234
101.01682072590383
101.08508489992764
101.30651031230919
101.97595415138946
103.83545736666092
108.50105160674852
118.88190772325478
139.013173034292
172.6435045980711
174.36399777885885
140.79213263322146
120.69992353013606
110.34233800460763
105.68909499662477
103.83545591257891
103.16851043303754
102.94805237292454
102.8801313797813
102.86039651543761
102.8549373467876
102.85348869057265
102.85311769005035
102.8530255929123
102.85300357798356
102.85299952946762
102.85300357798225
102.85302559290658
102.85311769024518
102.85348869139358
102.85493734325807
102.86039651996121
102.88013141810346
102.94805236191293
103.16851082359466
103.83545519083202
105.68909619664943
110.34233317667683
120.69992565972673
140.79216173562241
174.36399758130418
178.6953395235513
145.269262643817
125.27157000530052
114.96814501567124
110.34233749417378
108.50105568586588
107.83910933017499
107.62049046574315
107.5531928567843
107.53365502062893
107.52825453860625
107.52682250306121
107.52645601103602
107.52636509157394
107.52634337088993
107.52633937818892
107.52634337088864
107.52636509156827
107.52645601122832
107.52682250387251
107.52825453511579
107.53365502510609
107.55319289474383
107.62049045483148
107.83910971767607
108.50105496924404
110.3423386867423
114.96814021478541
125.27157212451209
145.26929161539286
178.69533932745722
188.36187903730445
155.25791783247118
135.46313713027106
125.27156895745823
120.69992197255485
118.88190378234188
118.22894277953657
118.01349073284065
117.94722586906686
117.92800349129068
117.92269419335693
117.92128730982121
117.92092748373334
117.92083827012347
117.92081696815029
117.92081305389718
117.92081696814907
117.92083827011787
117.92092748392217
117.92128731061814
117.92269418992616
117.92800349569427
117.94722590643313
118.01349072209528
118.22894316163986
118.8819030751251
120.69992315070112
125.27156421098199
135.46313922748308
155.25794651861207
188.36187884410617
207.15518966303193
174.67183088095402
155.2579740787329
145.26931842485246
140.79218817320853
139.01319927978673
138.37476000015673
138.16425516428586
138.09955574225887
138.08079902704597
138.07562123446127
138.07424989037952
138.0738993145334
138.0738124305406
138.07379169249404
138.07378788287122
138.07379169249273
138.07381243053524
138.07389931471744
138.07424989115623
138.07562123111632
138.08079903134166
138.09955577873433
138.16425515379325
138.374760373654
139.01319858803555
140.79218932660606
145.26931377490982
155.25797613511742
174.67185902328532
207.15518947455647
238.60706461066263
207.15513755759423
188.36188037729
178.69533988319952
174.36399766223838
172.64350444647465
172.0262515502666
171.82279092240216
171.7602728593537
171.74215277163157
171.73715176916113
171.7358274976473
171.73548901308823
171.7354051385643
171.7353851215527
171.73538144474136
171.73538512155147
171.73540513855903
171.73548901326586
171.73582749839738
171.73715176593072
171.74215277578134
171.7602728945966
171.82279091226295
172.02625191132876
172.6435037775777
174.36399877792374
178.69533538402774
188.36188236774197
207.1551648037783
238.6070644286716
