# vtk DataFile Version 2.0
Unstructured Grid Example
ASCII
DATASET UNSTRUCTURED_GRID

POINTS 961 float
0.100000001 0.00499999989 0
0.0966666639 0.00499999989 0
0.0933333337 0.00499999989 0
0.0900000036 0.00499999989 0
0.086666666 0.00499999989 0
0.0833333358 0.00499999989 0
0.0799999982 0.00499999989 0
0.0766666681 0.00499999989 0
0.0733333305 0.00499999989 0
0.0700000003 0.00499999989 0
0.0666666701 0.00499999989 0
0.0633333325 0.00499999989 0
0.0599999987 0.00499999989 0
0.0566666685 0.00499999989 0
0.0533333346 0.00499999989 0
0.0500000007 0.00499999989 0
0.0466666669 0.00499999989 0
0.043333333 0.00499999989 0
0.0399999991 0.00499999989 0
0.0366666652 0.00499999989 0
0.0333333351 0.00499999989 0
0.0299999993 0.00499999989 0
0.0266666673 0.00499999989 0
0.0233333334 0.00499999989 0
0.0199999996 0.00499999989 0
0.0166666675 0.00499999989 0
0.0133333337 0.00499999989 0
0.00999999978 0.00499999989 0
0.00666666683 0.00499999989 0
0.00333333341 0.00499999989 0
0.0 0.00499999989 0
0.100000001 0.00166666671 0
0.0966666639 0.00166666671 0
0.0933333337 0.00166666671 0
0.0900000036 0.00166666671 0
0.086666666 0.00166666671 0
0.0833333358 0.00166666671 0
0.0799999982 0.00166666671 0
0.0766666681 0.00166666671 0
0.0733333305 0.00166666671 0
0.0700000003 0.00166666671 0
0.0666666701 0.00166666671 0
0.0633333325 0.00166666671 0
0.0599999987 0.00166666671 0
0.0566666685 0.00166666671 0
0.0533333346 0.00166666671 0
0.0500000007 0.00166666671 0
0.0466666669 0.00166666671 0
0.043333333 0.00166666671 0
0.0399999991 0.00166666671 0
0.0366666652 0.00166666671 0
0.0333333351 0.00166666671 0
0.0299999993 0.00166666671 0
0.0266666673 0.00166666671 0
0.0233333334 0.00166666671 0
0.0199999996 0.00166666671 0
0.0166666675 0.00166666671 0
0.0133333337 0.00166666671 0
0.00999999978 0.00166666671 0
0.00666666683 0.00166666671 0
0.00333333341 0.00166666671 0
0.0 0.00166666671 0
0.100000001 -0.00166666671 0
0.0966666639 -0.00166666671 0
0.0933333337 -0.00166666671 0
0.0900000036 -0.00166666671 0
0.086666666 -0.00166666671 0
0.0833333358 -0.00166666671 0
0.0799999982 -0.00166666671 0
0.0766666681 -0.00166666671 0
0.0733333305 -0.00166666671 0
0.0700000003 -0.00166666671 0
0.0666666701 -0.00166666671 0
0.0633333325 -0.00166666671 0
0.0599999987 -0.00166666671 0
0.0566666685 -0.00166666671 0
0.0533333346 -0.00166666671 0
0.0500000007 -0.00166666671 0
0.0466666669 -0.00166666671 0
0.043333333 -0.00166666671 0
0.0399999991 -0.00166666671 0
0.0366666652 -0.00166666671 0
0.0333333351 -0.00166666671 0
0.0299999993 -0.00166666671 0
0.0266666673 -0.00166666671 0
0.0233333334 -0.00166666671 0
0.0199999996 -0.00166666671 0
0.0166666675 -0.00166666671 0
0.0133333337 -0.00166666671 0
0.00999999978 -0.00166666671 0
0.00666666683 -0.00166666671 0
0.00333333341 -0.00166666671 0
0.0 -0.00166666671 0
0.100000001 -0.00499999989 0
0.0966666639 -0.00499999989 0
0.0933333337 -0.00499999989 0
0.0900000036 -0.00499999989 0
0.086666666 -0.00499999989 0
0.0833333358 -0.00499999989 0
0.0799999982 -0.00499999989 0
0.0766666681 -0.00499999989 0
0.0733333305 -0.00499999989 0
0.0700000003 -0.00499999989 0
0.0666666701 -0.00499999989 0
0.0633333325 -0.00499999989 0
0.0599999987 -0.00499999989 0
0.0566666685 -0.00499999989 0
0.0533333346 -0.00499999989 0
0.0500000007 -0.00499999989 0
0.0466666669 -0.00499999989 0
0.043333333 -0.00499999989 0
0.0399999991 -0.00499999989 0
0.0366666652 -0.00499999989 0
0.0333333351 -0.00499999989 0
0.0299999993 -0.00499999989 0
0.0266666673 -0.00499999989 0
0.0233333334 -0.00499999989 0
0.0199999996 -0.00499999989 0
0.0166666675 -0.00499999989 0
0.0133333337 -0.00499999989 0
0.00999999978 -0.00499999989 0
0.00666666683 -0.00499999989 0
0.00333333341 -0.00499999989 0
0.0 -0.00499999989 0
0.100000001 -0.00833333377 0
0.0966666639 -0.00833333377 0
0.0933333337 -0.00833333377 0
0.0900000036 -0.00833333377 0
0.086666666 -0.00833333377 0
0.0833333358 -0.00833333377 0
0.0799999982 -0.00833333377 0
0.0766666681 -0.00833333377 0
0.0733333305 -0.00833333377 0
0.0700000003 -0.00833333377 0
0.0666666701 -0.00833333377 0
0.0633333325 -0.00833333377 0
0.0599999987 -0.00833333377 0
0.0566666685 -0.00833333377 0
0.0533333346 -0.00833333377 0
0.0500000007 -0.00833333377 0
0.0466666669 -0.00833333377 0
0.043333333 -0.00833333377 0
0.0399999991 -0.00833333377 0
0.0366666652 -0.00833333377 0
0.0333333351 -0.00833333377 0
0.0299999993 -0.00833333377 0
0.0266666673 -0.00833333377 0
0.0233333334 -0.00833333377 0
0.0199999996 -0.00833333377 0
0.0166666675 -0.00833333377 0
0.0133333337 -0.00833333377 0
0.00999999978 -0.00833333377 0
0.00666666683 -0.00833333377 0
0.00333333341 -0.00833333377 0
0.0 -0.00833333377 0
0.100000001 -0.0116666667 0
0.0966666639 -0.0116666667 0
0.0933333337 -0.0116666667 0
0.0900000036 -0.0116666667 0
0.086666666 -0.0116666667 0
0.0833333358 -0.0116666667 0
0.0799999982 -0.0116666667 0
0.0766666681 -0.0116666667 0
0.0733333305 -0.0116666667 0
0.0700000003 -0.0116666667 0
0.0666666701 -0.0116666667 0
0.0633333325 -0.0116666667 0
0.0599999987 -0.0116666667 0
0.0566666685 -0.0116666667 0
0.0533333346 -0.0116666667 0
0.0500000007 -0.0116666667 0
0.0466666669 -0.0116666667 0
0.043333333 -0.0116666667 0
0.0399999991 -0.0116666667 0
0.0366666652 -0.0116666667 0
0.0333333351 -0.0116666667 0
0.0299999993 -0.0116666667 0
0.0266666673 -0.0116666667 0
0.0233333334 -0.0116666667 0
0.0199999996 -0.0116666667 0
0.0166666675 -0.0116666667 0
0.0133333337 -0.0116666667 0
0.00999999978 -0.0116666667 0
0.00666666683 -0.0116666667 0
0.00333333341 -0.0116666667 0
0.0 -0.0116666667 0
0.100000001 -0.0149999997 0
0.0966666639 -0.0149999997 0
0.0933333337 -0.0149999997 0
0.0900000036 -0.0149999997 0
0.086666666 -0.0149999997 0
0.0833333358 -0.0149999997 0
0.0799999982 -0.0149999997 0
0.0766666681 -0.0149999997 0
0.0733333305 -0.0149999997 0
0.0700000003 -0.0149999997 0
0.0666666701 -0.0149999997 0
0.0633333325 -0.0149999997 0
0.0599999987 -0.0149999997 0
0.0566666685 -0.0149999997 0
0.0533333346 -0.0149999997 0
0.0500000007 -0.0149999997 0
0.0466666669 -0.0149999997 0
0.043333333 -0.0149999997 0
0.0399999991 -0.0149999997 0
0.0366666652 -0.0149999997 0
0.0333333351 -0.0149999997 0
0.0299999993 -0.0149999997 0
0.0266666673 -0.0149999997 0
0.0233333334 -0.0149999997 0
0.0199999996 -0.0149999997 0
0.0166666675 -0.0149999997 0
0.0133333337 -0.0149999997 0
0.00999999978 -0.0149999997 0
0.00666666683 -0.0149999997 0
0.00333333341 -0.0149999997 0
0.0 -0.0149999997 0
0.100000001 -0.0183333326 0
0.0966666639 -0.0183333326 0
0.0933333337 -0.0183333326 0
0.0900000036 -0.0183333326 0
0.086666666 -0.0183333326 0
0.0833333358 -0.0183333326 0
0.0799999982 -0.0183333326 0
0.0766666681 -0.0183333326 0
0.0733333305 -0.0183333326 0
0.0700000003 -0.0183333326 0
0.0666666701 -0.0183333326 0
0.0633333325 -0.0183333326 0
0.0599999987 -0.0183333326 0
0.0566666685 -0.0183333326 0
0.0533333346 -0.0183333326 0
0.0500000007 -0.0183333326 0
0.0466666669 -0.0183333326 0
0.043333333 -0.0183333326 0
0.0399999991 -0.0183333326 0
0.0366666652 -0.0183333326 0
0.0333333351 -0.0183333326 0
0.0299999993 -0.0183333326 0
0.0266666673 -0.0183333326 0
0.0233333334 -0.0183333326 0
0.0199999996 -0.0183333326 0
0.0166666675 -0.0183333326 0
0.0133333337 -0.0183333326 0
0.00999999978 -0.0183333326 0
0.00666666683 -0.0183333326 0
0.00333333341 -0.0183333326 0
0.0 -0.0183333326 0
0.100000001 -0.0216666665 0
0.0966666639 -0.0216666665 0
0.0933333337 -0.0216666665 0
0.0900000036 -0.0216666665 0
0.086666666 -0.0216666665 0
0.0833333358 -0.0216666665 0
0.0799999982 -0.0216666665 0
0.0766666681 -0.0216666665 0
0.0733333305 -0.0216666665 0
0.0700000003 -0.0216666665 0
0.0666666701 -0.0216666665 0
0.0633333325 -0.0216666665 0
0.0599999987 -0.0216666665 0
0.0566666685 -0.0216666665 0
0.0533333346 -0.0216666665 0
0.0500000007 -0.0216666665 0
0.0466666669 -0.0216666665 0
0.043333333 -0.0216666665 0
0.0399999991 -0.0216666665 0
0.0366666652 -0.0216666665 0
0.0333333351 -0.0216666665 0
0.0299999993 -0.0216666665 0
0.0266666673 -0.0216666665 0
0.0233333334 -0.0216666665 0
0.0199999996 -0.0216666665 0
0.0166666675 -0.0216666665 0
0.0133333337 -0.0216666665 0
0.00999999978 -0.0216666665 0
0.00666666683 -0.0216666665 0
0.00333333341 -0.0216666665 0
0.0 -0.0216666665 0
0.100000001 -0.0250000004 0
0.0966666639 -0.0250000004 0
0.0933333337 -0.0250000004 0
0.0900000036 -0.0250000004 0
0.086666666 -0.0250000004 0
0.0833333358 -0.0250000004 0
0.0799999982 -0.0250000004 0
0.0766666681 -0.0250000004 0
0.0733333305 -0.0250000004 0
0.0700000003 -0.0250000004 0
0.0666666701 -0.0250000004 0
0.0633333325 -0.0250000004 0
0.0599999987 -0.0250000004 0
0.0566666685 -0.0250000004 0
0.0533333346 -0.0250000004 0
0.0500000007 -0.0250000004 0
0.0466666669 -0.0250000004 0
0.043333333 -0.0250000004 0
0.0399999991 -0.0250000004 0
0.0366666652 -0.0250000004 0
0.0333333351 -0.0250000004 0
0.0299999993 -0.0250000004 0
0.0266666673 -0.0250000004 0
0.0233333334 -0.0250000004 0
0.0199999996 -0.0250000004 0
0.0166666675 -0.0250000004 0
0.0133333337 -0.0250000004 0
0.00999999978 -0.0250000004 0
0.00666666683 -0.0250000004 0
0.00333333341 -0.0250000004 0
0.0 -0.0250000004 0
0.100000001 -0.0283333343 0
0.0966666639 -0.0283333343 0
0.0933333337 -0.0283333343 0
0.0900000036 -0.0283333343 0
0.086666666 -0.0283333343 0
0.0833333358 -0.0283333343 0
0.0799999982 -0.0283333343 0
0.0766666681 -0.0283333343 0
0.0733333305 -0.0283333343 0
0.0700000003 -0.0283333343 0
0.0666666701 -0.0283333343 0
0.0633333325 -0.0283333343 0
0.0599999987 -0.0283333343 0
0.0566666685 -0.0283333343 0
0.0533333346 -0.0283333343 0
0.0500000007 -0.0283333343 0
0.0466666669 -0.0283333343 0
0.043333333 -0.0283333343 0
0.0399999991 -0.0283333343 0
0.0366666652 -0.0283333343 0
0.0333333351 -0.0283333343 0
0.0299999993 -0.0283333343 0
0.0266666673 -0.0283333343 0
0.0233333334 -0.0283333343 0
0.0199999996 -0.0283333343 0
0.0166666675 -0.0283333343 0
0.0133333337 -0.0283333343 0
0.00999999978 -0.0283333343 0
0.00666666683 -0.0283333343 0
0.00333333341 -0.0283333343 0
0.0 -0.0283333343 0
[...]
POINT_DATA 961
SCALARS Temp float 1
LOOKUP_TABLE default
330.2707391733738
298.9407584932782
274.4262467939475
256.1908040816341
243.31544975830445
234.69331619875146
229.21738050253492
225.91735328789608
224.028316760645
222.99974959264944
222.46614130423382
222.20192523458496
222.07693843266188
222.02069671349508
221.99753902730592
221.9913403627003
221.99753902550543
222.02069670854212
222.07693851514813
222.20192542150187
222.46614084170668
222.99974990574856
224.0283181189042
225.91735295724914
229.21738463067194
234.69331151531176
243.3154539090892
256.19079311852187
274.4262497685667
298.94078923024284
330.2707389933039
298.9407913439695
266.4819978929634
241.0837762122752
222.19052427762657
208.85032111628868
199.9165825774029
194.2425182350694
190.822938058221
188.865371159238
187.79943491455896
187.2464102874605
186.97256506847586
186.84301596637422
186.784718107841
186.76071264098198
186.75428685247746
186.76071263911555
186.78471810270665
186.8430160518734
186.97256526220903
187.24640980808888
187.79943523904186
188.86537256680276
190.8229377155768
194.2425225126543
199.91657772458734
208.85032541699942
222.19051291886498
241.0837792941609
266.4820297376608
298.94079115743995
274.4262514380333
241.0837460618465
214.9927626419724
195.58291947660985
181.87685447007715
172.6972245483396
166.86634841303515
163.35183402249396
161.33965463921402
160.2438261006496
159.67520881820354
159.39359951654242
159.26035682460176
159.20038775194047
159.17569082021424
159.16907937901038
159.17569081829393
159.20038774665846
159.26035691254435
159.39359971578017
159.6752083252753
160.24382643425656
161.33965608613454
163.3518336702845
166.8663528090774
172.69721956163022
181.87685888892514
195.58290780677765
214.99276580802078
241.08377877433674
274.42625124650465
256.1907933311537
222.1904774863182
195.5829029921967
175.78693353695647
161.80660893002528
152.4420182137201
146.49272506286164
142.90620993112722
140.85241707301748
139.7336985110917
139.15307967779825
138.8654629171626
138.72934716156104
138.6680714456556
138.6428314536927
138.6360737916633
138.64283145172996
138.66807144025765
138.72934725140826
138.86546312066815
139.15307917440543
139.73369885170308
140.8524185499897
142.90620957162474
146.49272954853095
152.44201312606066
161.80661343756765
175.78692163426086
195.58290622107805
222.1905108453442
256.19079313596063
243.3154542528314
208.8502896316122
181.87685414452346
161.80662564534563
147.63079693606744
138.13379661531755
132.099319829605
128.46073274695786
126.37667004083877
125.2411990868992
124.65174075384404
124.35967044849797
124.2214108208871
124.15915389374457
124.13350382949314
124.1266353689324
124.13350382749817
124.15915388825898
124.22141091215927
124.35967065517559
124.65174024271631
125.24119943265282
126.376671539728
128.46073238214672
132.09932437990292
138.13379145518226
147.6308015069548
161.80661357694046
181.876857417969
208.85032344802397
243.31545405509908
234.6933136073012
199.9165434227069
172.6972166320176
152.44202734301768
138.1337887641758
128.54665933294817
122.45386656220496
118.77940490061711
116.67434476271012
115.5271685562704
114.93148710685637
114.63625712798566
114.49646461573381
114.4335008126313
114.40755337854927
114.40060423894823
114.40755337653076
114.43350080708231
114.49646470802833
114.6362573369205
114.93148659026019
115.52716890563059
116.67434627685027
118.77940453212065
122.45387115687302
128.54665412331215
138.13379337806148
152.4420151626102
172.69721993546594
199.9165775461222
234.69331340790694
229.21738485847024
194.2424860703636
166.86634786481022
146.4927418111347
132.09931960523775
122.45387431106309
116.32310234665573
112.62510703103948
110.50616425047056
109.35118440521455
108.75131802175483
108.45394423731958
108.3131023260261
108.24965038402519
108.22349603851113
108.21649049563895
108.22349603647635
108.24965037843229
108.31310241902305
108.4539444477912
108.75131750146326
109.35118475698954
110.5061657747303
112.62510666010441
116.32310697031507
122.45386906927511
132.09932424685672
146.4927295588403
166.86635118743013
194.24252038927287
229.21738465804847
225.91735384797056
190.8229018340609
163.351829414058
142.9062225979756
128.46072832041557
118.77940843599197
112.62510276092543
108.91240712916488
106.78471655944989
105.62477362216282
105.022219699465
104.72345537878849
104.58192591675189
104.51815101834158
104.4918586102823
104.48481523200255
104.4918586082365
104.51815101271931
104.58192601021084
104.72345559026095
105.02221917678757
105.62477397548115
106.78471809011204
108.91240675669192
112.62510740261428
118.7794031743404
128.46073297903595
142.90621030185082
163.35183274831024
190.82293627112853
225.91735364694827
224.02831869990686
188.86533629191555
161.33965148972567
140.8524312648624
126.37666712606851
116.67434984272774
110.50616151768548
106.78471811318596
104.651772333338
103.48881750875694
102.88461524269829
102.58498868699482
102.44302815358762
102.3790485871371
102.35266786316642
102.34560014121826
102.35266786111346
102.37904858149604
102.44302824733784
102.58498889909058
102.8846147185485
103.48881786301688
104.65177386786337
106.78471773978843
110.50616617005188
116.67434456939642
126.3766717946023
140.85241894332998
161.33965483068567
188.86537079683524
224.02831849855272
222.99974988924666
187.7993983053737
160.2438211955928
139.73371093054328
125.24119435354967
115.52717180888583
109.35117982282725
105.62477332409364
103.48881564997396
102.32411584990444
101.71894766257955
101.41880985688616
101.27659065846987
101.21248684834235
101.18605196913637
101.17896922602179
101.18605196707907
101.21248684268986
101.27659075239559
101.4188100693532
101.71894713756132
102.32411620471298
103.48881718672398
105.62477295016579
109.3511844812209
115.52716652901178
125.24119902758777
139.73369859499098
160.24382454023367
187.79943284736297
222.99974968771824
222.46614114498988
187.2463731852426
159.67520342439536
139.15309160845348
124.6517355137245
114.93148985244687
108.75131292336965
105.02221888604427
102.88461286585098
101.71894714514691
101.11323781790169
100.81281000174397
100.67044220441117
100.60626613375337
100.57979941916929
100.57270778721393
100.57979941710943
100.6062661280941
100.67044229843836
100.8128102144227
101.11323729239363
101.71894750026081
102.88461440382457
105.02221851182595
108.7513175850099
114.93148456907676
124.65174019067682
139.15307926552669
159.67520677096152
187.24640774653028
222.46614094337494
222.2019255685657
186.97252846721835
159.3935946469219
138.8654753883283
124.35966575194689
114.6362604256011
108.45393969218216
104.72345512271664
102.58498686841124
101.41880989943292
100.81281056251107
100.51222529359808
100.36977574629671
100.30555940794936
100.2790747541776
100.27197807886681
100.27907475211612
100.30555940228638
100.36977584038
100.5122255063924
100.8128100367385
101.41881025470948
102.58498840702815
104.7234547483462
108.45394435549296
114.6362551404467
124.35967043037265
138.86546304169795
159.3935979944494
186.9725630380962
222.20192536690965
222.0769386945641
186.84297928555625
159.260351877461
138.72935955603788
124.22140604393203
114.49646783335209
108.3130976989701
104.5819255791432
102.44302625289869
101.27659061916648
100.67044268338411
100.3697756643128
100.2272830967223
100.16304528830737
100.13655096076216
100.12945154683855
100.13655095869996
100.1630452826422
100.22728319083528
100.36977587716743
100.6704421574751
101.2765909745259
102.44302779183884
104.58192520469683
108.31310236310235
114.49646254732781
124.22141072306971
138.7293472076303
159.2603552254472
186.8430138609874
222.07693849288967
222.02069690144833
186.7846813481793
159.2003827256369
138.6680837603794
124.15914903460701
114.43350394772602
108.24964567318449
104.51815059688184
102.37904660216999
101.21248672478748
100.60626652844685
100.30555924156151
100.16304520388638
100.09879654318303
100.07229727208951
100.0651964492744
100.07229727002688
100.09879653751688
100.1630452980143
100.3055594544458
100.60626600247096
101.21248708018697
102.37904814126465
104.51815022239937
108.2496503377007
114.43349866129854
124.15915371407178
138.6680714111611
159.20038607383125
186.78471592566655
222.020696699766
221.99753922603992
186.76067589158987
159.1756858052743
138.6428437804984
124.13349898214761
114.40755652581662
108.22349133967148
104.49185820103597
102.3526658903819
101.18605185786903
100.57979982619318
100.27907460009553
100.13655088865576
100.07229728441243
100.0457957402001
100.03869426586174
100.04579573813731
100.07229727874576
100.13655098279037
100.27907481299329
100.57979930018767
101.18605221328602
102.35266742954344
104.49185782653794
108.22349600435102
114.40755123921885
124.13350366174932
138.64283143094218
159.1756891535549
186.76071046992615
221.99753902435455
221.99134057010028
186.75425011182594
159.1690743732781
138.63608612800653
124.12663053115
114.40060739595755
108.21648580654737
104.48481483259803
102.34559817828999
101.17896912465395
100.57270820415765
100.27197793470248
100.12945148465502
100.06519647152383
100.03869427578887
100.03159261406805
100.03869427372601
100.06519646585708
100.12945157879152
100.27197814760402
100.5727076781438
101.17896948007579
102.34559971746994
104.48481445809571
108.21649047127157
114.40060210931333
124.12663521078882
138.6360737783591
159.16907772158183
186.75428469039022
221.99134036841417
221.99753923037736
186.76067589608616
159.17568580990013
138.64284378522592
124.13349898695206
114.40755653067671
108.22349134457033
104.49185820596068
102.35266589532326
101.18605186282053
100.57979983115064
100.27907460505635
100.1365508936185
100.07229728937601
100.04579574516418
100.03869427082583
100.04579574310135
100.07229728370937
100.13655098775305
100.27907481795414
100.57979930514509
101.18605221823756
102.3526674344848
104.49185783146272
108.22349600924996
114.40755124407897
124.13350366655372
138.64283143566976
159.17568915818072
186.76071047442252
221.99753902869213
222.02069691228357
186.78468135941085
159.2003827371908
138.66808377218575
124.15914904660333
114.43350395985928
108.24964568541272
104.51815060917308
102.37904661450119
101.21248673714304
100.60626654081666
100.30555925393926
100.16304521626844
100.09879655556739
100.07229728447474
100.06519646165995
100.0722972824122
100.09879654990112
100.16304531039637
100.30555946682382
100.60626601484084
101.21248709254257
102.37904815359587
104.5181502346907
108.24965034992896
114.43349867343196
124.15915372606804
138.6680714229675
159.20038608538493
186.78471593689812
222.0206967106012
222.07693871897732
186.84297931086112
159.26035190348858
138.72935958262838
124.2214060709435
114.49646786066526
108.3130977264905
104.58192560679974
102.44302628064072
101.27659064696024
100.6704427112077
100.36977569215287
100.22728312457106
100.1630453161604
100.13655098861726
100.12945157469426
100.13655098655506
100.1630453104954
100.22728321868414
100.36977590500747
100.67044218529871
101.27659100231962
102.4430278195812
104.58192523235348
108.31310239062284
114.4964625746411
124.2214107500813
138.72934723422088
159.26035525147458
186.8430138862921
222.07693851730286
222.20192562635143
186.9725285271112
159.39359470851588
138.86547545124083
124.35966581583904
114.63626049018988
108.45393975724527
104.72345518808834
102.58498693397495
101.41880996511105
100.81281062825447
100.51222535937698
100.36977581209416
100.305559473756
100.27907481998831
100.27197814467874
100.27907481792694
100.30555946809284
100.36977590617744
100.5122255721713
100.8128101024819
101.41881032038762
102.584988472592
104.72345481371802
108.45394442055614
114.63625520503591
124.35967049426499
138.86546310461034
159.39359805604334
186.97256309798908
222.20192542469545
222.46614147861592
187.24637353101633
159.675203779941
139.1530919715372
124.65173588237535
114.9314902250301
108.75131329860743
105.0222192629939
102.88461324385553
101.71894752377271
101.1132381968775
100.81281038090845
100.67044258367284
100.60626651306255
100.57979979849958
100.57270816655007
100.57979979643966
100.60626650740333
100.67044267769992
100.81281059358714
101.11323767136943
101.71894787888664
102.88461478182914
105.02221888877567
108.75131796024769
114.93148494166012
124.65174055932778
139.15307962861039
159.67520712650713
187.24640809230388
222.46614127700087
222.99974970340224
187.79939811276958
160.2438209975656
139.73371072834658
125.24119414828705
115.52717160146867
109.35117961396422
105.6247731143044
103.48881543961808
102.32411563921741
101.71894745170756
101.41880964591547
101.27659044744865
101.21248663729673
101.18605175807991
101.17896901496239
101.18605175602264
101.21248663164431
101.27659054137446
101.41880985838247
101.71894692668936
102.3241159940259
103.48881697636804
105.62477274037659
109.35118427235801
115.52716632159463
125.24119882232513
139.73369839279422
160.243824342206
187.79943265475842
222.99974950187357
224.02831988264063
188.86533751758537
161.33965274967048
140.85243255098231
126.37666843128166
116.67435116122934
110.50616284500623
106.78471944608772
104.65177366960799
103.48881884696709
102.8846165819758
102.58499002683367
102.44302949370865
102.37904992739274
102.3526692034805
102.34560148154843
102.35266920142762
102.3790499217518
102.44302958745897
102.58499023892946
102.88461605782592
103.48881920122696
104.65177520413337
106.78471907269017
110.50616749737273
116.67434588789803
126.3766730998153
140.85242022944973
161.33965609063006
188.86537202250497
224.02831968128643
225.91735320079763
190.82290116341852
163.35182872473106
142.90622189442948
128.46072760654263
118.77940771496905
112.6251020351856
108.91240640046
106.78471582896873
105.62477289066658
105.02221896741494
104.72345464644962
104.581925184269
104.51815028579075
104.49185787770203
104.4848144994142
104.49185787565621
104.51815028016847
104.58192527772829
104.72345485792215
105.0222184447373
105.62477324398485
106.78471735963083
108.9124060279871
112.6251066768745
118.77940245331743
128.46073226516293
142.90620959830457
163.35183205898315
190.8229356004863
225.9173529997753
229.21738972805943
194.24249111624863
166.86635305044354
146.49274710251484
132.0993249728796
122.45387973106932
116.32310780088206
112.62511250655098
110.50616973859039
109.35118990045308
108.75132352082858
108.45394973836721
108.31310782804454
108.2496558864974
108.22350154117633
108.216495998357
108.22350153914164
108.24965588090453
108.31310792104156
108.45394994883883
108.75132300053706
109.35119025222812
110.50617126285016
112.62511213561602
116.32311242454143
122.45387448928146
132.09932961449866
146.4927348502205
166.86635637306344
194.24252543515797
229.2173895276379
234.69331551084082
199.9165453950618
172.69721865871907
152.44202941064194
138.13379086113468
128.5466614499063
122.4538686921269
118.77940703853072
116.67434690531215
115.52717070149244
114.93148925347504
114.63625927531527
114.49646676340942
114.4335029604668
114.40755552645221
114.40060638686955
114.40755552443383
114.43350295491794
114.49646685570394
114.63625948425008
114.93148873687886
115.52717105085259
116.67434841945231
118.77940667003439
122.45387328679526
128.54665624027047
138.13379547502066
152.4420172302347
172.69722196216748
199.91657951847742
234.69331531144684
243.31544848441484
208.8502836548139
181.87684800347208
161.8066193809236
147.63079058348723
138.13379020285888
132.09931337849858
128.4607262721413
126.37666355218585
125.2411925905574
124.65173425342775
124.35966394601995
124.22140431741217
124.15914738981144
124.13349732536788
124.12662886475509
124.13349732337298
124.159147384326
124.22140440868438
124.35966415269742
124.65173374230008
125.24119293631098
126.37666505107495
128.4607259073302
132.0993179287967
138.13378504272367
147.63079515437494
161.80660731251845
181.87685127691782
208.850317471226
243.31544828668294
256.190802031066
222.19048650019175
195.5829122528915
175.78694298239589
161.80661850691305
152.44202787943775
146.492734785583
142.90621968859756
140.85242685062713
139.7337082998117
139.15308947236124
138.86547271465952
138.72935696046542
138.6680812452019
138.6428412535065
138.63608359154927
138.64284125154376
138.66808123980397
138.72935705031236
138.8654729181648
139.1530889689682
139.7337086404227
140.85242832759891
142.90621932909485
146.49273927125222
152.44202279177844
161.8066230144554
175.78693107970057
195.58291548177323
222.1905198592177
256.1908018358731
274.4262437944206
241.08373814259917
214.9927545064573
195.58291117963577
181.87684605858902
172.69721605975693
166.86633987519232
163.35182545476533
161.33964605425388
160.24381750623505
159.67520021884505
159.39359091471576
159.2603482215978
159.20037914840253
159.1756822164546
159.16907077519141
159.17568221453445
159.20037914312044
159.26034830954012
159.39359111395316
159.67519972591623
160.2438178398414
161.33964750117372
163.3518251025555
166.86634427123434
172.69721107304738
181.87685047743696
195.5828995098037
214.99275767250606
241.08377085509014
274.42624360289216
298.94081705034466
266.48202452576743
241.083803570824
222.19055217686642
208.8503493980241
199.91661111586473
194.2425469370024
190.8229668589527
188.86540001670153
187.7994638030148
187.24643919205033
186.97259398108272
186.84304488278698
186.7847470259723
186.76074155982306
186.75431577150886
186.76074155795664
186.78474702083798
186.84304496828594
186.9725941748155
187.24643871267838
187.79946412749698
188.86540142426577
190.822966516308
194.24255121458683
199.91660626304875
208.8503536987347
222.19054081810518
241.08380665270985
266.4820563704642
298.9408168638155
330.27073907538744
298.94075839177845
274.42624668973224
256.1908039754319
243.31544965072843
234.69331609027853
229.21738039350913
225.91735317854818
224.02831665111987
222.99974948303205
222.46614119457044
222.20192512489993
222.07693832296695
222.02069660379604
221.99753891760523
221.99134025299924
221.99753891580477
222.02069659884285
222.07693840545303
222.20192531181644
222.46614073204282
222.99974979613083
224.02831800937855
225.9173528479009
229.21738452164544
234.69331140683843
243.31545380151306
256.19079301231983
274.42624966435153
298.94078912874346
330.27073889531783
