# vtk DataFile Version 2.0
Unstructured Grid Example
ASCII
DATASET UNSTRUCTURED_GRID

POINTS 961 float
0.100000001 0.00499999989 0
0.0966666639 0.00499999989 0
0.0933333337 0.00499999989 0
0.0900000036 0.00499999989 0
0.086666666 0.00499999989 0
0.0833333358 0.00499999989 0
0.0799999982 0.00499999989 0
0.0766666681 0.00499999989 0
0.0733333305 0.00499999989 0
0.0700000003 0.00499999989 0
0.0666666701 0.00499999989 0
0.0633333325 0.00499999989 0
0.0599999987 0.00499999989 0
0.0566666685 0.00499999989 0
0.0533333346 0.00499999989 0
0.0500000007 0.00499999989 0
0.0466666669 0.00499999989 0
0.043333333 0.00499999989 0
0.0399999991 0.00499999989 0
0.0366666652 0.00499999989 0
0.0333333351 0.00499999989 0
0.0299999993 0.00499999989 0
0.0266666673 0.00499999989 0
0.0233333334 0.00499999989 0
0.0199999996 0.00499999989 0
0.0166666675 0.00499999989 0
0.0133333337 0.00499999989 0
0.00999999978 0.00499999989 0
0.00666666683 0.00499999989 0
0.00333333341 0.00499999989 0
0.0 0.00499999989 0
0.100000001 0.00166666671 0
0.0966666639 0.00166666671 0
0.0933333337 0.00166666671 0
0.0900000036 0.00166666671 0
0.086666666 0.00166666671 0
0.0833333358 0.00166666671 0
0.0799999982 0.00166666671 0
0.0766666681 0.00166666671 0
0.0733333305 0.00166666671 0
0.0700000003 0.00166666671 0
0.0666666701 0.00166666671 0
0.0633333325 0.00166666671 0
0.0599999987 0.00166666671 0
0.0566666685 0.00166666671 0
0.0533333346 0.00166666671 0
0.0500000007 0.00166666671 0
0.0466666669 0.00166666671 0
0.043333333 0.00166666671 0
0.0399999991 0.00166666671 0
0.0366666652 0.00166666671 0
0.0333333351 0.00166666671 0
0.0299999993 0.00166666671 0
0.0266666673 0.00166666671 0
0.0233333334 0.00166666671 0
0.0199999996 0.00166666671 0
0.0166666675 0.00166666671 0
0.0133333337 0.00166666671 0
0.00999999978 0.00166666671 0
0.00666666683 0.00166666671 0
0.00333333341 0.00166666671 0
0.0 0.00166666671 0
0.100000001 -0.00166666671 0
0.0966666639 -0.00166666671 0
0.0933333337 -0.00166666671 0
0.0900000036 -0.00166666671 0
0.086666666 -0.00166666671 0
0.0833333358 -0.00166666671 0
0.0799999982 -0.00166666671 0
0.0766666681 -0.00166666671 0
0.0733333305 -0.00166666671 0
0.0700000003 -0.00166666671 0
0.0666666701 -0.00166666671 0
0.0633333325 -0.00166666671 0
0.0599999987 -0.00166666671 0
0.0566666685 -0.00166666671 0
0.0533333346 -0.00166666671 0
0.0500000007 -0.00166666671 0
0.0466666669 -0.00166666671 0
0.043333333 -0.00166666671 0
0.0399999991 -0.00166666671 0
0.0366666652 -0.00166666671 0
0.0333333351 -0.00166666671 0
0.0299999993 -0.00166666671 0
0.0266666673 -0.00166666671 0
0.0233333334 -0.00166666671 0
0.0199999996 -0.00166666671 0
0.0166666675 -0.00166666671 0
0.0133333337 -0.00166666671 0
0.00999999978 -0.00166666671 0
0.00666666683 -0.00166666671 0
0.00333333341 -0.00166666671 0
0.0 -0.00166666671 0
0.100000001 -0.00499999989 0
0.0966666639 -0.00499999989 0
0.0933333337 -0.00499999989 0
0.0900000036 -0.00499999989 0
0.086666666 -0.00499999989 0
0.0833333358 -0.00499999989 0
0.0799999982 -0.00499999989 0
0.0766666681 -0.00499999989 0
0.0733333305 -0.00499999989 0
0.0700000003 -0.00499999989 0
0.0666666701 -0.00499999989 0
0.0633333325 -0.00499999989 0
0.0599999987 -0.00499999989 0
0.0566666685 -0.00499999989 0
0.0533333346 -0.00499999989 0
0.0500000007 -0.00499999989 0
0.0466666669 -0.00499999989 0
0.043333333 -0.00499999989 0
0.0399999991 -0.00499999989 0
0.0366666652 -0.00499999989 0
0.0333333351 -0.00499999989 0
0.0299999993 -0.00499999989 0
0.0266666673 -0.00499999989 0
0.0233333334 -0.00499999989 0
0.0199999996 -0.00499999989 0
0.0166666675 -0.00499999989 0
0.0133333337 -0.00499999989 0
0.00999999978 -0.00499999989 0
0.00666666683 -0.00499999989 0
0.00333333341 -0.00499999989 0
0.0 -0.00499999989 0
0.100000001 -0.00833333377 0
0.0966666639 -0.00833333377 0
0.0933333337 -0.00833333377 0
0.0900000036 -0.00833333377 0
0.086666666 -0.00833333377 0
0.0833333358 -0.00833333377 0
0.0799999982 -0.00833333377 0
0.0766666681 -0.00833333377 0
0.0733333305 -0.00833333377 0
0.0700000003 -0.00833333377 0
0.0666666701 -0.00833333377 0
0.0633333325 -0.00833333377 0
0.0599999987 -0.00833333377 0
0.0566666685 -0.00833333377 0
0.0533333346 -0.00833333377 0
0.0500000007 -0.00833333377 0
0.0466666669 -0.00833333377 0
0.043333333 -0.00833333377 0
0.0399999991 -0.00833333377 0
0.0366666652 -0.00833333377 0
0.0333333351 -0.00833333377 0
0.0299999993 -0.00833333377 0
0.0266666673 -0.00833333377 0
0.0233333334 -0.00833333377 0
0.0199999996 -0.00833333377 0
0.0166666675 -0.00833333377 0
0.0133333337 -0.00833333377 0
0.00999999978 -0.00833333377 0
0.00666666683 -0.00833333377 0
0.00333333341 -0.00833333377 0
0.0 -0.00833333377 0
0.100000001 -0.0116666667 0
0.0966666639 -0.0116666667 0
0.0933333337 -0.0116666667 0
0.0900000036 -0.0116666667 0
0.086666666 -0.0116666667 0
0.0833333358 -0.0116666667 0
0.0799999982 -0.0116666667 0
0.0766666681 -0.0116666667 0
0.0733333305 -0.0116666667 0
0.0700000003 -0.0116666667 0
0.0666666701 -0.0116666667 0
0.0633333325 -0.0116666667 0
0.0599999987 -0.0116666667 0
0.0566666685 -0.0116666667 0
0.0533333346 -0.0116666667 0
0.0500000007 -0.0116666667 0
0.0466666669 -0.0116666667 0
0.043333333 -0.0116666667 0
0.0399999991 -0.0116666667 0
0.0366666652 -0.0116666667 0
0.0333333351 -0.0116666667 0
0.0299999993 -0.0116666667 0
0.0266666673 -0.0116666667 0
0.0233333334 -0.0116666667 0
0.0199999996 -0.0116666667 0
0.0166666675 -0.0116666667 0
0.0133333337 -0.0116666667 0
0.00999999978 -0.0116666667 0
0.00666666683 -0.0116666667 0
0.00333333341 -0.0116666667 0
0.0 -0.0116666667 0
0.100000001 -0.0149999997 0
0.0966666639 -0.0149999997 0
0.0933333337 -0.0149999997 0
0.0900000036 -0.0149999997 0
0.086666666 -0.0149999997 0
0.0833333358 -0.0149999997 0
0.0799999982 -0.0149999997 0
0.0766666681 -0.0149999997 0
0.0733333305 -0.0149999997 0
0.0700000003 -0.0149999997 0
0.0666666701 -0.0149999997 0
0.0633333325 -0.0149999997 0
0.0599999987 -0.0149999997 0
0.0566666685 -0.0149999997 0
0.0533333346 -0.0149999997 0
0.0500000007 -0.0149999997 0
0.0466666669 -0.0149999997 0
0.043333333 -0.0149999997 0
0.0399999991 -0.0149999997 0
0.0366666652 -0.0149999997 0
0.0333333351 -0.0149999997 0
0.0299999993 -0.0149999997 0
0.0266666673 -0.0149999997 0
0.0233333334 -0.0149999997 0
0.0199999996 -0.0149999997 0
0.0166666675 -0.0149999997 0
0.0133333337 -0.0149999997 0
0.00999999978 -0.0149999997 0
0.00666666683 -0.0149999997 0
0.00333333341 -0.0149999997 0
0.0 -0.0149999997 0
0.100000001 -0.0183333326 0
0.0966666639 -0.0183333326 0
0.0933333337 -0.0183333326 0
0.0900000036 -0.0183333326 0
0.086666666 -0.0183333326 0
0.0833333358 -0.0183333326 0
0.0799999982 -0.0183333326 0
0.0766666681 -0.0183333326 0
0.0733333305 -0.0183333326 0
0.0700000003 -0.0183333326 0
0.0666666701 -0.0183333326 0
0.0633333325 -0.0183333326 0
0.0599999987 -0.0183333326 0
0.0566666685 -0.0183333326 0
0.0533333346 -0.0183333326 0
0.0500000007 -0.0183333326 0
0.0466666669 -0.0183333326 0
0.043333333 -0.0183333326 0
0.0399999991 -0.0183333326 0
0.0366666652 -0.0183333326 0
0.0333333351 -0.0183333326 0
0.0299999993 -0.0183333326 0
0.0266666673 -0.0183333326 0
0.0233333334 -0.0183333326 0
0.0199999996 -0.0183333326 0
0.0166666675 -0.0183333326 0
0.0133333337 -0.0183333326 0
0.00999999978 -0.0183333326 0
0.00666666683 -0.0183333326 0
0.00333333341 -0.0183333326 0
0.0 -0.0183333326 0
0.100000001 -0.0216666665 0
0.0966666639 -0.0216666665 0
0.0933333337 -0.0216666665 0
0.0900000036 -0.0216666665 0
0.086666666 -0.0216666665 0
0.0833333358 -0.0216666665 0
0.0799999982 -0.0216666665 0
0.0766666681 -0.0216666665 0
0.0733333305 -0.0216666665 0
0.0700000003 -0.0216666665 0
0.0666666701 -0.0216666665 0
0.0633333325 -0.0216666665 0
0.0599999987 -0.0216666665 0
0.0566666685 -0.0216666665 0
0.0533333346 -0.0216666665 0
0.0500000007 -0.0216666665 0
0.0466666669 -0.0216666665 0
0.043333333 -0.0216666665 0
0.0399999991 -0.0216666665 0
0.0366666652 -0.0216666665 0
0.0333333351 -0.0216666665 0
0.0299999993 -0.0216666665 0
0.0266666673 -0.0216666665 0
0.0233333334 -0.0216666665 0
0.0199999996 -0.0216666665 0
0.0166666675 -0.0216666665 0
0.0133333337 -0.0216666665 0
0.00999999978 -0.0216666665 0
0.00666666683 -0.0216666665 0
0.00333333341 -0.0216666665 0
0.0 -0.0216666665 0
0.100000001 -0.0250000004 0
0.0966666639 -0.0250000004 0
0.0933333337 -0.0250000004 0
0.0900000036 -0.0250000004 0
0.086666666 -0.0250000004 0
0.0833333358 -0.0250000004 0
0.0799999982 -0.0250000004 0
0.0766666681 -0.0250000004 0
0.0733333305 -0.0250000004 0
0.0700000003 -0.0250000004 0
0.0666666701 -0.0250000004 0
0.0633333325 -0.0250000004 0
0.0599999987 -0.0250000004 0
0.0566666685 -0.0250000004 0
0.0533333346 -0.0250000004 0
0.0500000007 -0.0250000004 0
0.0466666669 -0.0250000004 0
0.043333333 -0.0250000004 0
0.0399999991 -0.0250000004 0
0.0366666652 -0.0250000004 0
0.0333333351 -0.0250000004 0
0.0299999993 -0.0250000004 0
0.0266666673 -0.0250000004 0
0.0233333334 -0.0250000004 0
0.0199999996 -0.0250000004 0
0.0166666675 -0.0250000004 0
0.0133333337 -0.0250000004 0
0.00999999978 -0.0250000004 0
0.00666666683 -0.0250000004 0
0.00333333341 -0.0250000004 0
0.0 -0.0250000004 0
0.100000001 -0.0283333343 0
0.0966666639 -0.0283333343 0
0.0933333337 -0.0283333343 0
0.0900000036 -0.0283333343 0
0.086666666 -0.0283333343 0
0.0833333358 -0.0283333343 0
0.0799999982 -0.0283333343 0
0.0766666681 -0.0283333343 0
0.0733333305 -0.0283333343 0
0.0700000003 -0.0283333343 0
0.0666666701 -0.0283333343 0
0.0633333325 -0.0283333343 0
0.0599999987 -0.0283333343 0
0.0566666685 -0.0283333343 0
0.0533333346 -0.0283333343 0
0.0500000007 -0.0283333343 0
0.0466666669 -0.0283333343 0
0.043333333 -0.0283333343 0
0.0399999991 -0.0283333343 0
0.0366666652 -0.0283333343 0
0.0333333351 -0.0283333343 0
0.0299999993 -0.0283333343 0
0.0266666673 -0.0283333343 0
0.0233333334 -0.0283333343 0
0.0199999996 -0.0283333343 0
0.0166666675 -0.0283333343 0
0.0133333337 -0.0283333343 0
0.00999999978 -0.0283333343 0
0.00666666683 -0.0283333343 0
0.00333333341 -0.0283333343 0
0.0 -0.0283333343 0
[...]
POINT_DATA 961
SCALARS Temp float 1
LOOKUP_TABLE default
259.16507915513046
227.37235627201113
206.5009819212821
194.28345776274708
187.8875192547546
184.87138071617954
183.5777894009012
183.0679139419355
182.88132560431583
182.8173336953209
182.7965944059102
182.79019693441705
182.78830717636257
182.7877703432507
182.78762513753807
182.78759593850202
182.7876251375291
182.78777034321504
182.78830717740323
182.79019693822485
182.7965943916538
182.81733371096647
182.88132571610197
183.06791391178365
183.57779021373034
184.87137942253972
187.88752102601708
194.28345154815514
206.50098422836112
227.37238496355818
259.1650788494012
227.37238708423308
194.5040109971978
172.92404024264192
160.28978340756439
153.6744724791879
150.5542600238858
149.2157567567985
148.68807166776003
148.4949281650566
148.42867589175808
148.40720033829072
148.40057469248552
148.39861724467949
148.39806110702116
148.39791066150133
148.3978804062469
148.397910661492
148.39806110698422
148.39861724575752
148.40057469642943
148.40720032352698
148.42867590795714
148.49492828077803
148.68807163654844
149.2157575979185
150.55425868544896
153.67447431136011
160.289776980313
172.9240426281698
194.50404066098164
227.37238676808096
206.50098567595847
172.92401157766702
150.87266340087862
137.95752377042777
131.19204273303592
127.99938119552907
126.62907448829742
126.08856583837294
125.89062714122659
125.82269683716265
125.8006672291764
125.79386772738448
125.7918581140041
125.791286944389
125.79113238138982
125.79110129089077
125.79113238138021
125.79128694435103
125.79185811511095
125.79386773143236
125.800667214029
125.82269685377534
125.89062725984242
126.08856580638547
126.62907534959024
127.99937982559631
131.19204460720746
137.9575171985402
150.872665838822
172.92404188474305
206.50098535281134
194.2834518955612
160.2897443833276
137.95751354665856
124.87202190899137
118.01353454019191
114.77496620533796
113.38403140627491
112.83501303644695
112.63382250292265
112.56473106576658
112.54231090016656
112.53538675441143
112.53333916134211
112.53275689387573
112.53259925363731
112.53256753363496
112.53259925362745
112.53275689383699
112.53333916247003
112.5353867585342
112.54231088474657
112.56473108266775
112.63382262351645
112.83501300393216
113.38403228077752
114.77496481517286
118.0135364406339
124.87201524830346
137.95751601602058
160.28977507098773
194.28345156823298
187.88752143427928
153.67444156056
131.19204099211532
118.01354321324895
111.10298195867053
107.83798563280372
106.43482810387005
105.88062153749725
105.67739353271836
105.60755574496915
105.58487855257556
105.57787059273592
105.57579695588646
105.57520694225916
105.57504712063653
105.57501494963347
105.57504712062655
105.57520694221976
105.57579695702886
105.57787059690935
105.5848785369745
105.60755576205746
105.67739365456339
105.88062150465105
106.43482898629416
107.83798423078994
111.10298387399982
118.01353650336124
131.19204347839377
153.67447244999178
187.88752110473774
184.87138030121247
150.55422631774587
127.9993766953256
114.7749721168912
107.837982816326
104.55914819891487
103.14937579305179
102.59226651363477
102.38786117838463
102.31757874380767
102.29474401513123
102.28768332630871
102.28559291010039
102.28499779702605
102.28483651206906
102.28480403460968
102.284836512059
102.28499779698633
102.28559291125217
102.28768333051433
102.29474399941779
102.31757876100895
102.38786130096115
102.59226648059631
103.14937667982353
104.55914679057251
107.83798473931398
114.7749653823233
127.99937918982933
150.55425730365
184.8713799706315
183.5777905515855
149.2157246256251
126.62907164075342
113.38403901219917
106.43482698164064
103.14937750090795
101.73632851896569
101.177727832892
100.9726952775538
100.90216756611497
100.87924304303303
100.87215137210528
100.87005081790787
100.86945254462442
100.86929033249884
100.86925765792068
100.86929033248877
100.86945254458458
100.87005081906551
100.87215137632995
100.87924302725465
100.90216758337938
100.97269540052524
101.17772779975049
101.73632940792498
103.14937608947434
106.43482890822185
113.38403226635533
126.62907413889742
149.2157556534967
183.5777902205685
183.06791432809425
148.68803872745943
126.0885621783626
112.83501982443947
105.88061958359155
102.59226738817028
101.17772699569758
100.61842084491099
100.41307984009053
100.34242682551327
100.31945472860839
100.31234607222166
100.31023978108837
100.30963966687895
100.30947690076293
100.30944410636087
100.30947690075286
100.30963966683899
100.3102397822492
100.31234607645712
100.3194547127953
100.34242684281065
100.41307996325911
100.61842081171848
101.17772788566917
102.59226597534946
105.8806215117201
112.83501307386771
126.0885646779867
148.6880697721056
183.06791399691147
182.88132607390213
148.49489530446365
125.89062356890254
112.63382938280071
105.67739166922107
102.38786214490266
100.9726945318987
100.41307993220204
100.20759853658039
100.13688615192869
100.11389061446185
100.1067732708388
100.10466394101014
100.10406281969577
100.10389974178486
100.10386687863776
100.10389974177474
100.10406281965574
100.10466394217299
100.10677327507977
100.11389059863127
100.13688616924192
100.20759865984023
100.41307989898611
100.97269542230302
102.38786073150641
105.67739359796579
112.63382263039415
125.89062606908469
148.4949263553313
182.88132574266177
182.81733402801416
148.42864288713747
125.82269311926915
112.56473779861216
105.60755373200848
102.31757956033624
100.90216666968362
100.34242676676755
100.13688600092455
100.0661474570313
100.0431411614537
100.03601966984384
100.03390883338756
100.03330719486975
100.03314395178586
100.033111051451
100.03314395177574
100.03330719482973
100.03390883455124
100.03601967408744
100.04314114561495
100.0661474743518
100.1368861242235
100.3424267335416
100.9021675602601
102.31757814671798
105.60755566098199
112.56473104554118
125.82269561964799
148.42867394016585
182.81733369675518
182.79659472267645
148.40716731641885
125.80066349425998
112.54231761601193
105.58487652210756
102.29474481416021
100.87924212892015
100.31945465220302
100.11389044576488
100.04314114377148
100.02013023717925
100.01300689353528
100.01089535724066
100.01029346932648
100.01013014390452
100.01009722461268
100.01013014389443
100.01029346928634
100.01089535840468
100.01300689778006
100.02013022133687
100.04314116109478
100.11389056907949
100.3194546189731
100.87924301956053
102.2947434004617
105.58487845116072
112.54231086271459
125.80066599470436
148.40719837015573
182.796594391412
182.79019726498535
148.40054168467086
125.79386400710152
112.53539348525962
105.57786857734749
102.28768414057102
100.87215047325095
100.31234601113049
100.10677311746788
100.03601966750301
100.01300690888192
100.00588279008555
100.00377094875581
100.00316894782945
100.00300558377492
100.00297265537856
100.00300558376472
100.00316894778936
100.00377094992004
100.0058827943309
100.01300689303797
100.03601968482747
100.10677324078839
100.3123459778989
100.87215136391384
102.287682726845
105.57787050642696
112.53538673188928
125.7938665075668
148.40057273862877
182.79019693371933
182.7883075049754
148.39858423476912
125.7918543916331
112.53334589009609
105.57579493834712
102.28559372220961
100.87004991687849
100.31023971782355
100.10466378546106
100.03390882886995
100.01089537041034
100.0037709465782
100.00165898023565
100.00105693112819
100.00089355000623
100.00086061749049
100.00089354999604
100.00105693108794
100.00165898139998
100.0037709508236
100.0108953545659
100.0339088461948
100.10466390878366
100.31023968459152
100.87005080754865
102.28559230847488
105.57579686743487
112.53333913670319
125.79185689210462
148.39861528879294
182.78830717370897
182.7877706709961
148.39802809619195
125.79128322109243
112.53276362169576
105.57520492376443
102.28499860817625
100.86945164262714
100.30963960264569
100.10406266317577
100.03330718938135
100.01029348152541
100.00316894468055
100.00105693015688
100.0004548617446
100.00029147353935
100.00025853927343
100.0002914735291
100.00045486170434
100.00105693132117
100.003168948926
100.0102934656808
100.0333072067065
100.10406278649917
100.30963956941345
100.86945253329974
102.28499719443876
105.57520685285476
112.53275686829615
125.79128572156579
148.39805915023476
182.78777033972963
182.7876254653737
148.39787765076008
125.79112865818837
112.53260598155707
105.57504510224024
102.28483732331973
100.86928943060134
100.30947683663042
100.10389958536562
100.03314394639862
100.01013015620468
100.00300558072732
100.00089354913615
100.00029147364052
100.00012808275201
100.00009514780903
100.00012808274181
100.00029147360031
100.00089355030049
100.00300558497287
100.01013014035995
100.03314396372383
100.10389970868914
100.3094768033982
100.86929032127472
102.28483590958146
105.5750470313312
112.53259922815562
125.79113115866213
148.39790870480797
182.78762513410732
182.78759626638026
148.39784739554872
125.79109756773464
112.53257426160135
105.57501293128405
102.28480484590786
100.8692567560707
100.30944404227617
100.10386672226643
100.03311104611171
100.01009723696097
100.00297265237899
100.00086061666853
100.00025853942265
100.00009514785712
100.00006221274091
100.00009514784696
100.00025853938254
100.00086061783284
100.0029726566245
100.01009722111625
100.0331110634369
100.10386684559003
100.30944400904397
100.86925764674426
102.28480343216938
105.57501486037518
112.53256750819948
125.79110006820852
148.39787844959767
182.78759593511384
182.78762546539957
148.39787765078685
125.79112865821588
112.53260598158505
105.57504510226859
102.2848373233484
100.8692894306301
100.30947683665936
100.10389958539469
100.03314394642767
100.01013015623377
100.00300558075634
100.00089354916524
100.00029147366958
100.00012808278112
100.00009514783815
100.00012808277091
100.00029147362943
100.0008935503296
100.0030055850019
100.0101301403891
100.03314396375286
100.10389970871822
100.30947680342716
100.86929032130357
102.28483590961015
105.57504703135957
112.53259922818366
125.79113115868961
148.39790870483466
182.78762513413304
182.78777067108643
148.39802809628554
125.79128322118851
112.53276362179366
105.57520492386368
102.28499860827624
100.8694516427277
100.3096396027466
100.10406266327686
100.03330718948261
100.01029348162668
100.00316894478186
100.0010569302582
100.0004548618459
100.0002914736406
100.00025853937477
100.00029147363047
100.00045486180572
100.00105693142255
100.00316894902748
100.01029346578204
100.03330720680772
100.10406278660022
100.30963956951449
100.86945253340038
102.28499719453885
105.57520685295394
112.5327568683941
125.79128572166174
148.39805915032815
182.7877703398198
182.78830750529502
148.39858423510012
125.7918543919729
112.5333458904424
105.57579493869777
102.28559372256314
100.87004991723377
100.31023971817994
100.10466378581793
100.03390882922699
100.01089537076761
100.00377094693555
100.00165898059308
100.00105693148552
100.00089355036363
100.00086061784792
100.0008935503536
100.00105693144549
100.00165898175749
100.00377095118104
100.01089535492326
100.0339088465519
100.10466390914064
100.31023968494796
100.87005080790408
102.28559230882844
105.57579686778558
112.53333913704947
125.79185689244441
148.39861528912388
182.78830717402846
182.79019726618833
148.4005416859168
125.79386400838044
112.5353934865621
105.57786857866589
102.28768414189948
100.87215047458557
100.31234601246838
100.10677311880751
100.03601966884345
100.01300691022277
100.00588279142667
100.00377095009696
100.0031689491706
100.00300558511614
100.00297265671978
100.00300558510602
100.00316894913045
100.00377095126125
100.00588279567205
100.0130068943789
100.036019686168
100.10677324212807
100.31234597923695
100.87215136524853
102.28768272817372
105.57787050774537
112.5353867331916
125.79386650884561
148.40057273987478
182.79019693492228
182.79659473344267
148.40716732756803
125.80066350569867
112.54231762765578
105.58487653388764
102.29474482602458
100.8792421408332
100.31945466414223
100.11389045771705
100.04314115572976
100.02013024914017
100.0130069054974
100.01089536920318
100.01029348128922
100.01013015586727
100.0100972365755
100.01013015585711
100.01029348124912
100.0108953703672
100.01300690974217
100.02013023329789
100.04314117305307
100.11389058103174
100.31945463091232
100.8792430314736
102.29474341232614
105.58487846294075
112.54231087435845
125.80066600614313
148.40719838130485
182.7965944021783
182.81733401968955
148.42864287851813
125.82269311042914
112.56473778961757
105.60755372291314
102.3175795511799
100.90216666049288
100.34242675755881
100.13688599170699
100.06614744780985
100.04314115223055
100.0360196606201
100.03390882416357
100.03330718564568
100.03314394256171
100.03311104222685
100.0331439425516
100.03330718560566
100.03390882532723
100.03601966486364
100.04314113639178
100.06614746513023
100.13688611500596
100.3424267243329
100.90216755106935
102.31757813756154
105.60755565188657
112.56473103654656
125.8226956108079
148.42867393154637
182.81733368843055
182.88132616977975
148.49489540371707
125.89062367064015
112.63382948623666
105.67739177373237
102.3878622500432
100.97269463737929
100.41308003785274
100.20759864230982
100.13688625769193
100.11389072023866
100.10677337662085
100.10466404679401
100.10406292548012
100.1038998475695
100.1038669844223
100.10389984755936
100.10406292544003
100.10466404795677
100.10677338086172
100.11389070440806
100.13688627500517
100.20759876556959
100.41308000463677
100.9726955277837
102.38786083664688
105.67739370247699
112.63382273383009
125.89062617082234
148.49492645458477
182.8813258385394
183.06791425584106
148.68803865267276
126.08856210173276
112.83501974656849
105.88061950494954
102.59226730908705
101.1777269163817
100.6184207654819
100.41307976061043
100.34242674601177
100.31945464909863
100.31234599270871
100.31023970157428
100.30963958736466
100.30947682124837
100.3094440268463
100.30947682123829
100.30963958732457
100.31023970273525
100.31234599694415
100.31945463328537
100.34242676330916
100.41307988377902
100.61842073228932
101.17772780635326
102.59226589626613
105.88062143307803
112.83501299599664
126.08856460135684
148.68806969731892
183.0679139246583
183.57779150291515
149.21572561006863
126.62907264881365
113.38404003572892
106.43482801445053
103.14937853881369
101.73632955943665
101.1777288745507
100.97269631972085
100.90216860848442
100.87924408547764
100.87215241457623
100.87005186038756
100.86945358710686
100.8692913749821
100.86925870040412
100.86929137497205
100.86945358706704
100.87005186154511
100.87215241880092
100.87924406969933
100.90216862574887
100.97269644269231
101.17772884140929
101.73633044839598
103.1493771273801
106.43482994103177
113.38403328988498
126.62907514695763
149.21575663794033
183.57779117189804
184.87138091662706
150.55422695442158
127.99937734685169
114.77497277786941
107.83798348277507
104.55914886824564
103.14937646376873
102.59226718496399
102.3878618499639
102.31757941548203
102.29474468683938
102.28768399802806
102.28559358182345
102.28499846875029
102.28483718379357
102.28480470633428
102.28483718378355
102.2849984687106
102.28559358297532
102.28768400223376
102.29474467112591
102.31757943268322
102.38786197254045
102.59226715192561
103.14937735054068
104.55914745990351
107.83798540576316
114.77496604330152
127.99937984135536
150.55425794032587
184.8713805860463
187.88751909325202
153.67443913896696
131.19203851484752
118.01354070104966
111.10297942659903
107.83798309046303
106.43482555668783
105.8806189882197
105.6773909826023
105.60755319454043
105.58487600203732
105.57786804216136
105.5757944053004
105.57520439166962
105.57504457004597
105.5750123990428
105.5750445700361
105.5752043916304
105.57579440644287
105.57786804633474
105.58487598643612
105.60755321162867
105.67739110444721
105.88061895537354
106.43482643911203
107.83798168844936
111.10298134192838
118.0135339911619
131.19204100112606
153.67447002839882
187.88751876371052
194.28345695525337
160.28974961604393
137.95751889683476
124.87202733110368
118.0135400020444
114.7749716870641
113.38403689705393
112.83501853101171
112.6338279989531
112.56473656232674
112.54231639690684
112.53539225120991
112.53334465815846
112.53276239069724
112.53260475046025
112.53257303045815
112.5326047504505
112.53276239065855
112.53334465928624
112.53539225533257
112.54231638148683
112.56473657922768
112.63382811954672
112.83501849849675
113.38403777155642
114.774970296899
118.01354190248632
124.87202067041581
137.95752136619674
160.2897803037039
194.2834566279252
206.50098000900493
172.92400571771464
150.8726574114094
137.95751770287873
131.19203662317298
127.99937506495684
126.6290683485046
126.08855969481226
125.89062099623956
125.82269069167118
125.80066108351689
125.79386158167159
125.79185196827497
125.79128079865525
125.7911262356546
125.79109514515542
125.79112623564508
125.79128079861724
125.79185196938171
125.79386158571926
125.8006610683693
125.82269070828373
125.89062111485525
126.08855966282451
126.62906920979732
127.99937369502402
131.1920384973444
137.95751113099124
150.87265984935297
172.92403602479095
206.50097968585803
227.37241110015617
194.50403582695762
172.92406561094822
160.2898090945247
153.67449833510247
150.55428596058422
149.21578272863772
148.6880976536438
148.4949541561484
148.42870188465827
148.40722633178368
148.4006006861634
148.3986432384124
148.39808710076983
148.3979366552543
148.39790640000066
148.3979366552449
148.3980871007328
148.39864323949035
148.40060069010707
148.40722631701988
148.42870190085702
148.49495427186946
148.68809762243197
149.2157835697574
150.55428462214715
153.67450016727472
160.28980266727356
172.92406799647617
194.50406549074083
227.3724107840043
259.1650789336425
227.37235604304965
206.50098168744657
194.28345752610352
187.88751901668422
184.87138047746564
183.5777891619262
183.06791370286422
182.88132536521175
182.8173334562066
182.79659416679263
182.7901966952984
182.78830693724356
182.78777010413168
182.787624898419
182.78759569938288
182.78762489840994
182.7877701040959
182.78830693828417
182.7901966991061
182.79659415253593
182.81733347185187
182.8813254769977
183.067913672712
183.57778997475506
184.87137918382547
187.88752078794676
194.28345131151184
206.50098399452565
227.37238473459692
259.16507862791343
