# vtk DataFile Version 2.0
Unstructured Grid Example
ASCII
DATASET UNSTRUCTURED_GRID

POINTS 961 float
0.100000001 0.00499999989 0
0.0966666639 0.00499999989 0
0.0933333337 0.00499999989 0
0.0900000036 0.00499999989 0
0.086666666 0.00499999989 0
0.0833333358 0.00499999989 0
0.0799999982 0.00499999989 0
0.0766666681 0.00499999989 0
0.0733333305 0.00499999989 0
0.0700000003 0.00499999989 0
0.0666666701 0.00499999989 0
0.0633333325 0.00499999989 0
0.0599999987 0.00499999989 0
0.0566666685 0.00499999989 0
0.0533333346 0.00499999989 0
0.0500000007 0.00499999989 0
0.0466666669 0.00499999989 0
0.043333333 0.00499999989 0
0.0399999991 0.00499999989 0
0.0366666652 0.00499999989 0
0.0333333351 0.00499999989 0
0.0299999993 0.00499999989 0
0.0266666673 0.00499999989 0
0.0233333334 0.00499999989 0
0.0199999996 0.00499999989 0
0.0166666675 0.00499999989 0
0.0133333337 0.00499999989 0
0.00999999978 0.00499999989 0
0.00666666683 0.00499999989 0
0.00333333341 0.00499999989 0
0.0 0.00499999989 0
0.100000001 0.00166666671 0
0.0966666639 0.00166666671 0
0.0933333337 0.00166666671 0
0.0900000036 0.00166666671 0
0.086666666 0.00166666671 0
0.0833333358 0.00166666671 0
0.0799999982 0.00166666671 0
0.0766666681 0.00166666671 0
0.0733333305 0.00166666671 0
0.0700000003 0.00166666671 0
0.0666666701 0.00166666671 0
0.0633333325 0.00166666671 0
0.0599999987 0.00166666671 0
0.0566666685 0.00166666671 0
0.0533333346 0.00166666671 0
0.0500000007 0.00166666671 0
0.0466666669 0.00166666671 0
0.043333333 0.00166666671 0
0.0399999991 0.00166666671 0
0.0366666652 0.00166666671 0
0.0333333351 0.00166666671 0
0.0299999993 0.00166666671 0
0.0266666673 0.00166666671 0
0.0233333334 0.00166666671 0
0.0199999996 0.00166666671 0
0.0166666675 0.00166666671 0
0.0133333337 0.00166666671 0
0.00999999978 0.00166666671 0
0.00666666683 0.00166666671 0
0.00333333341 0.00166666671 0
0.0 0.00166666671 0
0.100000001 -0.00166666671 0
0.0966666639 -0.00166666671 0
0.0933333337 -0.00166666671 0
0.0900000036 -0.00166666671 0
0.086666666 -0.00166666671 0
0.0833333358 -0.00166666671 0
0.0799999982 -0.00166666671 0
0.0766666681 -0.00166666671 0
0.0733333305 -0.00166666671 0
0.0700000003 -0.00166666671 0
0.0666666701 -0.00166666671 0
0.0633333325 -0.00166666671 0
0.0599999987 -0.00166666671 0
0.0566666685 -0.00166666671 0
0.0533333346 -0.00166666671 0
0.0500000007 -0.00166666671 0
0.0466666669 -0.00166666671 0
0.043333333 -0.00166666671 0
0.0399999991 -0.00166666671 0
0.0366666652 -0.00166666671 0
0.0333333351 -0.00166666671 0
0.0299999993 -0.00166666671 0
0.0266666673 -0.00166666671 0
0.0233333334 -0.00166666671 0
0.0199999996 -0.00166666671 0
0.0166666675 -0.00166666671 0
0.0133333337 -0.00166666671 0
0.00999999978 -0.00166666671 0
0.00666666683 -0.00166666671 0
0.00333333341 -0.00166666671 0
0.0 -0.00166666671 0
0.100000001 -0.00499999989 0
0.0966666639 -0.00499999989 0
0.0933333337 -0.00499999989 0
0.0900000036 -0.00499999989 0
0.086666666 -0.00499999989 0
0.0833333358 -0.00499999989 0
0.0799999982 -0.00499999989 0
0.0766666681 -0.00499999989 0
0.0733333305 -0.00499999989 0
0.0700000003 -0.00499999989 0
0.0666666701 -0.00499999989 0
0.0633333325 -0.00499999989 0
0.0599999987 -0.00499999989 0
0.0566666685 -0.00499999989 0
0.0533333346 -0.00499999989 0
0.0500000007 -0.00499999989 0
0.0466666669 -0.00499999989 0
0.043333333 -0.00499999989 0
0.0399999991 -0.00499999989 0
0.0366666652 -0.00499999989 0
0.0333333351 -0.00499999989 0
0.0299999993 -0.00499999989 0
0.0266666673 -0.00499999989 0
0.0233333334 -0.00499999989 0
0.0199999996 -0.00499999989 0
0.0166666675 -0.00499999989 0
0.0133333337 -0.00499999989 0
0.00999999978 -0.00499999989 0
0.00666666683 -0.00499999989 0
0.00333333341 -0.00499999989 0
0.0 -0.00499999989 0
0.100000001 -0.00833333377 0
0.0966666639 -0.00833333377 0
0.0933333337 -0.00833333377 0
0.0900000036 -0.00833333377 0
0.086666666 -0.00833333377 0
0.0833333358 -0.00833333377 0
0.0799999982 -0.00833333377 0
0.0766666681 -0.00833333377 0
0.0733333305 -0.00833333377 0
0.0700000003 -0.00833333377 0
0.0666666701 -0.00833333377 0
0.0633333325 -0.00833333377 0
0.0599999987 -0.00833333377 0
0.0566666685 -0.00833333377 0
0.0533333346 -0.00833333377 0
0.0500000007 -0.00833333377 0
0.0466666669 -0.00833333377 0
0.043333333 -0.00833333377 0
0.0399999991 -0.00833333377 0
0.0366666652 -0.00833333377 0
0.0333333351 -0.00833333377 0
0.0299999993 -0.00833333377 0
0.0266666673 -0.00833333377 0
0.0233333334 -0.00833333377 0
0.0199999996 -0.00833333377 0
0.0166666675 -0.00833333377 0
0.0133333337 -0.00833333377 0
0.00999999978 -0.00833333377 0
0.00666666683 -0.00833333377 0
0.00333333341 -0.00833333377 0
0.0 -0.00833333377 0
0.100000001 -0.0116666667 0
0.0966666639 -0.0116666667 0
0.0933333337 -0.0116666667 0
0.0900000036 -0.0116666667 0
0.086666666 -0.0116666667 0
0.0833333358 -0.0116666667 0
0.0799999982 -0.0116666667 0
0.0766666681 -0.0116666667 0
0.0733333305 -0.0116666667 0
0.0700000003 -0.0116666667 0
0.0666666701 -0.0116666667 0
0.0633333325 -0.0116666667 0
0.0599999987 -0.0116666667 0
0.0566666685 -0.0116666667 0
0.0533333346 -0.0116666667 0
0.0500000007 -0.0116666667 0
0.0466666669 -0.0116666667 0
0.043333333 -0.0116666667 0
0.0399999991 -0.0116666667 0
0.0366666652 -0.0116666667 0
0.0333333351 -0.0116666667 0
0.0299999993 -0.0116666667 0
0.0266666673 -0.0116666667 0
0.0233333334 -0.0116666667 0
0.0199999996 -0.0116666667 0
0.0166666675 -0.0116666667 0
0.0133333337 -0.0116666667 0
0.00999999978 -0.0116666667 0
0.00666666683 -0.0116666667 0
0.00333333341 -0.0116666667 0
0.0 -0.0116666667 0
0.100000001 -0.0149999997 0
0.0966666639 -0.0149999997 0
0.0933333337 -0.0149999997 0
0.0900000036 -0.0149999997 0
0.086666666 -0.0149999997 0
0.0833333358 -0.0149999997 0
0.0799999982 -0.0149999997 0
0.0766666681 -0.0149999997 0
0.0733333305 -0.0149999997 0
0.0700000003 -0.0149999997 0
0.0666666701 -0.0149999997 0
0.0633333325 -0.0149999997 0
0.0599999987 -0.0149999997 0
0.0566666685 -0.0149999997 0
0.0533333346 -0.0149999997 0
0.0500000007 -0.0149999997 0
0.0466666669 -0.0149999997 0
0.043333333 -0.0149999997 0
0.0399999991 -0.0149999997 0
0.0366666652 -0.0149999997 0
0.0333333351 -0.0149999997 0
0.0299999993 -0.0149999997 0
0.0266666673 -0.0149999997 0
0.0233333334 -0.0149999997 0
0.0199999996 -0.0149999997 0
0.0166666675 -0.0149999997 0
0.0133333337 -0.0149999997 0
0.00999999978 -0.0149999997 0
0.00666666683 -0.0149999997 0
0.00333333341 -0.0149999997 0
0.0 -0.0149999997 0
0.100000001 -0.0183333326 0
0.0966666639 -0.0183333326 0
0.0933333337 -0.0183333326 0
0.0900000036 -0.0183333326 0
0.086666666 -0.0183333326 0
0.0833333358 -0.0183333326 0
0.0799999982 -0.0183333326 0
0.0766666681 -0.0183333326 0
0.0733333305 -0.0183333326 0
0.0700000003 -0.0183333326 0
0.0666666701 -0.0183333326 0
0.0633333325 -0.0183333326 0
0.0599999987 -0.0183333326 0
0.0566666685 -0.0183333326 0
0.0533333346 -0.0183333326 0
0.0500000007 -0.0183333326 0
0.0466666669 -0.0183333326 0
0.043333333 -0.0183333326 0
0.0399999991 -0.0183333326 0
0.0366666652 -0.0183333326 0
0.0333333351 -0.0183333326 0
0.0299999993 -0.0183333326 0
0.0266666673 -0.0183333326 0
0.0233333334 -0.0183333326 0
0.0199999996 -0.0183333326 0
0.0166666675 -0.0183333326 0
0.0133333337 -0.0183333326 0
0.00999999978 -0.0183333326 0
0.00666666683 -0.0183333326 0
0.00333333341 -0.0183333326 0
0.0 -0.0183333326 0
0.100000001 -0.0216666665 0
0.0966666639 -0.0216666665 0
0.0933333337 -0.0216666665 0
0.0900000036 -0.0216666665 0
0.086666666 -0.0216666665 0
0.0833333358 -0.0216666665 0
0.0799999982 -0.0216666665 0
0.0766666681 -0.0216666665 0
0.0733333305 -0.0216666665 0
0.0700000003 -0.0216666665 0
0.0666666701 -0.0216666665 0
0.0633333325 -0.0216666665 0
0.0599999987 -0.0216666665 0
0.0566666685 -0.0216666665 0
0.0533333346 -0.0216666665 0
0.0500000007 -0.0216666665 0
0.0466666669 -0.0216666665 0
0.043333333 -0.0216666665 0
0.0399999991 -0.0216666665 0
0.0366666652 -0.0216666665 0
0.0333333351 -0.0216666665 0
0.0299999993 -0.0216666665 0
0.0266666673 -0.0216666665 0
0.0233333334 -0.0216666665 0
0.0199999996 -0.0216666665 0
0.0166666675 -0.0216666665 0
0.0133333337 -0.0216666665 0
0.00999999978 -0.0216666665 0
0.00666666683 -0.0216666665 0
0.00333333341 -0.0216666665 0
0.0 -0.0216666665 0
0.100000001 -0.0250000004 0
0.0966666639 -0.0250000004 0
0.0933333337 -0.0250000004 0
0.0900000036 -0.0250000004 0
0.086666666 -0.0250000004 0
0.0833333358 -0.0250000004 0
0.0799999982 -0.0250000004 0
0.0766666681 -0.0250000004 0
0.0733333305 -0.0250000004 0
0.0700000003 -0.0250000004 0
0.0666666701 -0.0250000004 0
0.0633333325 -0.0250000004 0
0.0599999987 -0.0250000004 0
0.0566666685 -0.0250000004 0
0.0533333346 -0.0250000004 0
0.0500000007 -0.0250000004 0
0.0466666669 -0.0250000004 0
0.043333333 -0.0250000004 0
0.0399999991 -0.0250000004 0
0.0366666652 -0.0250000004 0
0.0333333351 -0.0250000004 0
0.0299999993 -0.0250000004 0
0.0266666673 -0.0250000004 0
0.0233333334 -0.0250000004 0
0.0199999996 -0.0250000004 0
0.0166666675 -0.0250000004 0
0.0133333337 -0.0250000004 0
0.00999999978 -0.0250000004 0
0.00666666683 -0.0250000004 0
0.00333333341 -0.0250000004 0
0.0 -0.0250000004 0
0.100000001 -0.0283333343 0
0.0966666639 -0.0283333343 0
0.0933333337 -0.0283333343 0
0.0900000036 -0.0283333343 0
0.086666666 -0.0283333343 0
0.0833333358 -0.0283333343 0
0.0799999982 -0.0283333343 0
0.0766666681 -0.0283333343 0
0.0733333305 -0.0283333343 0
0.0700000003 -0.0283333343 0
0.0666666701 -0.0283333343 0
0.0633333325 -0.0283333343 0
0.0599999987 -0.0283333343 0
0.0566666685 -0.0283333343 0
0.0533333346 -0.0283333343 0
0.0500000007 -0.0283333343 0
0.0466666669 -0.0283333343 0
0.043333333 -0.0283333343 0
0.0399999991 -0.0283333343 0
0.0366666652 -0.0283333343 0
0.0333333351 -0.0283333343 0
0.0299999993 -0.0283333343 0
0.0266666673 -0.0283333343 0
0.0233333334 -0.0283333343 0
0.0199999996 -0.0283333343 0
0.0166666675 -0.0283333343 0
0.0133333337 -0.0283333343 0
0.00999999978 -0.0283333343 0
0.00666666683 -0.0283333343 0
0.00333333341 -0.0283333343 0
0.0 -0.0283333343 0
[...]
POINT_DATA 961
SCALARS Temp float 1
LOOKUP_TABLE default
292.1342190508957
260.32864799859914
237.22812406796476
221.6867672033215
212.01292011545624
206.43704183868368
203.45387421079192
201.96720506680683
201.27416414120697
200.97056758275937
200.84500361271094
200.79574876716413
200.77734766170585
200.77078953983022
200.76860475293213
200.76809650031973
200.76860475278295
200.7707895393368
200.77734767274578
200.79574879905311
200.8450035162674
200.97056766556813
201.27416459707203
201.9672049501684
203.4538762799084
206.43703910855476
212.01292303615134
221.68675847518165
237.22812674978786
260.3286780819352
292.1342187706549
260.32868026385444
227.4083137108681
203.49703798360068
187.40925572813592
177.39452972473217
171.6216699970709
168.53281676819014
166.99332065598804
166.27557695798703
165.96112509894277
165.83105755247695
165.78003071981692
165.7609656690232
165.7541702550613
165.751906217961
165.75137949817304
165.7519062178064
165.75417025455
165.76096568046182
165.78003075285437
165.83105745256896
165.96112518471625
166.27557743012133
166.99332053518938
168.532818910705
171.62166717032636
177.39453274845872
187.40924669273846
203.49704075961205
227.4083448493054
260.32867997383363
237.22812838007025
203.49700822598714
178.9939787771525
162.50543500841556
152.23920413075538
146.3200038786474
143.15203791279234
141.57267870729783
140.83613995495452
140.51336010990076
140.3798091041547
140.32740068807948
140.30781398063408
140.30083076680995
140.29850360119067
140.29796210718092
140.2985036010317
140.30083076628452
140.30781399238697
140.32740072201474
140.37980900155657
140.5133601979579
140.83614043950763
141.57267858332827
143.15204011044253
146.32000097979036
152.23920723072868
162.50542574691113
178.99398162203963
203.49704013309247
237.22812808302257
221.686758802949
187.4092122541036
162.50542144530496
145.7436910649118
135.3046363094735
129.28394104316283
126.06054460182897
124.4529527029659
123.70295439766156
123.37414410635037
123.23804290797621
123.18461223828022
123.16463558586123
123.1575106286471
123.15513540697951
123.15458260206444
123.15513540681722
123.15751062811083
123.16463559784985
123.18461227288233
123.23804280339787
123.37414419606986
123.70295489114781
124.45295257672
126.06054683829143
129.283938093978
135.30463946205236
145.7436816485824
162.5054243369575
187.40924468048328
221.68675850124762
212.01292345942812
177.39449806046406
152.2392029833797
135.30464907661712
124.75517534775999
118.66888706682282
115.40921256931031
113.78289376281818
113.02384363299295
112.69092108229333
112.55305688579556
112.49891003381717
112.47865666983483
112.4714299070034
112.46901979873067
112.46845872422941
112.46901979856591
112.47142990645915
112.47865668199134
112.49891006888878
112.55305677983938
112.69092117315348
113.02384413252014
113.78289363503673
115.40921483132327
118.66888408485926
124.75517853411733
135.30463956179966
152.23920590447466
177.39453081172235
212.01292315489098
206.43704054684224
171.62163333141663
146.31999778275488
129.28394886137232
118.668881984493
112.54310689959414
109.26126868169847
107.62332741559544
106.85856720608236
106.52300750573771
106.38399412045213
106.32937294033516
106.30893347751096
106.30163724730637
106.2992030270664
106.2986361884341
106.2992030268999
106.3016372467568
106.30893348978107
106.32937297571932
106.38399401359035
106.52300759733525
106.85856770944551
107.62332728684196
109.26127095942893
112.54310389771813
118.66888519103306
129.28393928834646
146.3200007210461
171.6216662710412
206.43704024071513
203.45387661006913
168.53278381580503
143.15203572199076
126.06055643979911
115.40921150821394
109.26127274884536
105.96678791736879
104.32209665612008
103.553958535523
103.21680926380999
103.07709012403308
103.02217225171498
103.00161430057558
102.99427309115036
102.9918230249042
102.9912523608984
102.9918230247366
102.99427309059726
103.00161431291873
103.02217228729596
103.07709001661009
103.21680935585596
103.5539590411727
104.32209652678932
105.96679020413742
109.26126973567935
115.40921472598886
126.06054683476147
143.15203866961787
168.53281685686787
203.45387630311984
201.96720554539883
166.99328566028657
141.5726744690402
124.452962480952
113.78289059561236
107.6233293716739
104.32209452824632
102.67373091111533
101.90371768278919
101.56566763168495
101.42554017605124
101.37044709941189
101.34981776946613
101.34244894544311
101.33998898602619
101.33941590723983
101.33998898585784
101.34244894488785
101.34981778185337
101.37044713511028
101.42554006830021
101.5656677239878
101.90371818971892
102.67373078146278
104.32209681987975
107.62332635252297
113.78289381922674
124.4529528594899
141.57267742139345
166.9933187522535
201.967205238056
201.27416503283735
166.2755423645116
140.8361361523002
123.70296463068479
113.02384091560218
106.85856962027444
103.55395686368959
101.90371814232262
101.13272683778875
100.79419644155998
100.65384632185534
100.59865554894216
100.57798553860715
100.57060064441357
100.56813482016858
100.56756029240113
100.56813481999987
100.57060064385696
100.57798555101996
100.5986555847063
100.6538462139234
100.79419653400123
101.13272734539215
101.90371801250141
103.55395915777915
106.85856659814998
113.02384414205929
123.70295500133366
140.83613910689263
166.27557548037925
201.27416472531942
200.97056791920863
165.9610899191903
140.5133557155615
123.3741537418621
112.69091775513766
106.52300930767102
103.2168069749387
101.56566747370127
100.79419582289745
100.45542401942622
100.31495932395335
100.25971707389564
100.23902512110861
100.23163136160504
100.22916223663522
100.22858688266527
100.22916223646628
100.23163136104775
100.23902513353538
100.25971710969482
100.31495921592705
100.45542411193789
100.79419633083498
101.56566734379687
103.21680927019457
106.52300628415742
112.69092098289542
123.37414410894988
140.51335867115108
165.961123045604
200.97056761161755
200.84500384864089
165.83102226389957
140.37980460223494
123.23805243599692
112.55305344762968
106.3839958113896
103.07708772270092
101.42553990575396
100.65384559054101
100.31495921139596
100.1744387953309
100.1191708847347
100.09846772164119
100.09106932381358
100.08859843494847
100.08802263332981
100.08859843477934
100.09106932325588
100.09846773407502
100.11917092055153
100.17443868725815
100.31495930394136
100.65384609863477
101.42553977581086
103.07709001847937
106.3839927872638
112.55305667594916
123.23804280156787
140.37980755824384
165.8310553947063
200.8450035410216
200.79574910087499
165.77999553067997
140.32739628992744
123.18462187294608
112.49890670285416
106.32937473979277
103.02216995910479
101.37044693837984
100.59865492701118
100.25971707090386
100.11917099437072
100.06389096406669
100.04318237016133
100.0357816690989
100.0333098848428
100.03273385271912
100.03330988467364
100.03578166854103
100.0431823825987
100.06389099989188
100.11917088627615
100.2597171634646
100.59865543517414
101.3704468084195
103.02217225510498
106.32937171541144
112.49890993140349
123.18461223790483
140.32739924610343
165.7800286632222
200.79574879324522
200.7773479808007
165.76093046404722
140.30780956683276
123.16464520490557
112.47865332271172
106.3089352608223
103.00161199158234
101.34981759208198
100.57798490026654
100.23902510172773
100.09846781489023
100.04318235376086
100.0224712630313
100.01506947610538
100.01259726014884
100.01202111527004
100.01259725997967
100.01506947554743
100.0224712754703
100.0431823895898
100.09846770678612
100.23902519429508
100.57798540845855
101.34981746211453
103.00161428767177
106.30893223633977
112.4786565513505
123.1646355696292
140.30781252307227
165.7609635972422
200.7773476731673
200.77078984941676
165.75413503998348
140.30082634285012
123.15752023744933
112.47142654937248
106.30163902006848
102.9942707714871
101.34244875738189
100.57059999536162
100.23163133151476
100.09106940635084
100.03578164197921
100.01506946538535
100.00766719442278
100.00519478175661
100.00461858476973
100.00519478158738
100.00766719386466
100.01506947782497
100.03578167780977
100.09106929824262
100.2316314240849
100.57060050356533
101.3424486274116
102.99427306761085
106.30163599554778
112.47142977804452
123.15751060208699
140.30082929911256
165.75416817341264
200.77078954178216
200.76860506368126
165.751871004004
140.2984991784567
123.1551450170737
112.46901644236902
106.29920480112982
102.99182070653023
101.33998879927024
100.56813417242056
100.22916220785562
100.08859851879889
100.0333098590351
100.01259725074122
100.00519478306933
100.00272228889136
100.00214607004322
100.00272228872218
100.00519478251121
100.0125972631811
100.0333098948663
100.08859841068914
100.22916230042681
100.5681346806286
101.33998866929898
102.99182300266608
106.29920177659577
112.4690196710523
123.15513538168199
140.29850213472687
165.75190413751145
200.76860475604636
200.7680968117886
165.75134428494223
140.29795768521083
123.15459221294822
112.46845536865926
106.29863796330191
102.99125004332919
101.33941572129501
100.56755964546502
100.22858685470014
100.0880227179958
100.03273382772669
100.01202110667798
100.00461858689818
100.00214607085884
100.00156984610146
100.00214607068966
100.0046185863401
100.01202111911792
100.03273386355811
100.08802260988578
100.22858694727155
100.56756015367414
101.3394155913236
102.99125233946808
106.29863493876465
112.46845859734535
123.15458257754958
140.29796064148286
165.7513774184682
200.76809650415356
200.76860506408354
165.7518710044209
140.29849917888515
123.15514501751102
112.46901644281276
106.29920480157807
102.99182070698136
101.33998879972326
100.56813417287471
100.2291622083104
100.08859851925396
100.03330985949034
100.01259725119658
100.00519478352466
100.00272228934678
100.00214607049857
100.00272228917748
100.0051947829666
100.01259726363654
100.03330989532154
100.0885984111442
100.22916230088153
100.56813468108275
101.33998866975206
102.99182300311729
106.29920177704398
112.4690196714961
123.15513538211943
140.29850213515525
165.75190413792834
200.76860475644852
200.77078985059765
165.75413504120706
140.30082634410755
123.1575202387323
112.47142655067411
106.30163902138261
102.99427077280954
101.34244875870934
100.57059999669211
100.2316313328469
100.09106940768382
100.03578164331276
100.01506946671904
100.00766719575662
100.00519478309046
100.00461858610358
100.00519478292131
100.00766719519856
100.01506947915873
100.03578167914344
100.09106929957578
100.23163142541695
100.5706005048959
101.34244862873925
102.99427306893328
106.30163599686195
112.47142977934598
123.15751060336996
140.30082930036994
165.7541681746361
200.77078954296286
200.7773479841418
165.76093046750913
140.30780957038945
123.16464520853344
112.47865332639029
106.30893526453525
103.00161199531715
101.3498175958301
100.57798490402223
100.23902510548763
100.09846781865232
100.04318235752397
100.02247126679502
100.01506947986923
100.01259726391277
100.0120211190341
100.01259726374374
100.01506947931126
100.02247127923394
100.04318239335305
100.09846771054816
100.23902519805499
100.5779854122145
101.34981746586284
103.0016142914067
106.3089322400527
112.47865655502925
123.16463557325712
140.30781252662894
165.76096360070397
200.7773476765083
200.79574911085948
165.779995541024
140.32739630055246
123.18462188377961
112.49890671383436
106.32937475087056
103.02216997024408
101.3704469495557
100.59865493820749
100.25971708211114
100.11917100558345
100.0638909752821
100.04318238137793
100.035781680316
100.03330989606013
100.03273386393653
100.03330989589101
100.03578167975816
100.04318239381533
100.0638910111073
100.11917089748897
100.25971717467189
100.59865544637061
101.37044681959553
103.02217226624441
106.32937172648948
112.4989099423838
123.1846122487383
140.32739925672843
165.78002867356616
200.79574880322963
200.84500392006228
165.83102233788588
140.3798046782113
123.23805251343612
112.55305352608568
106.38399589051251
103.07708780223665
101.42553998553052
100.65384567044994
100.31495929137375
100.17443887534259
100.11917096476216
100.09846780167562
100.09106940385092
100.0885985149869
100.08802271336864
100.08859851481783
100.09106940329325
100.09846781410945
100.11917100057897
100.1744387672698
100.31495938391919
100.65384617854377
101.42553985558742
103.07709009801515
106.3839928663869
112.55305675440515
123.23804287900711
140.3798076342201
165.83105546869248
200.84500361244295
200.97056787284464
165.96108987116517
140.51335566625437
123.37415369161903
112.69091770425004
106.52300925636536
103.21680692337745
101.565667421993
100.79419577110954
100.45542396759748
100.31495927210487
100.25971702203823
100.2390250692473
100.23163130974211
100.22916218477158
100.22858683080155
100.22916218460269
100.23163130918482
100.23902508167399
100.25971705783732
100.31495916407857
100.4554240601091
100.79419627904701
101.56566729208868
103.21680921863341
106.52300623285176
112.6909209320079
123.37414405870683
140.51335862184368
165.96112299757849
200.9705675652536
201.27416542698504
166.27554277272725
140.83613657125827
123.70296505737257
113.02384134751996
106.8585700555153
103.55395730091247
101.90371858065583
101.13272727670683
100.79419688076827
100.65384676119959
100.59865598834668
100.57798597803703
100.57060108385356
100.56813525961228
100.56756073184569
100.56813525944368
100.57060108329702
100.5779859904499
100.59865602411082
100.65384665326756
100.79419697320955
101.13272778431025
101.90371845083466
103.55395959500204
106.85856703339073
113.02384457397706
123.70295542802145
140.83613952585046
166.27557588859491
201.27416511946697
201.96720529510068
166.99328540107356
141.57267420305888
124.45296221013723
113.78289032155794
107.6233290955841
104.32209425095792
102.67373063316488
101.90371740449524
101.5656673532232
101.42553989751222
101.37044682083902
101.34981749087922
101.3424486668508
101.33998870743173
101.339415628645
101.33998870726346
101.34244866629554
101.34981750326666
101.37044685653738
101.4255397897611
101.56566744552606
101.90371791142495
102.6737305035123
104.32209654259135
107.62332607643316
113.78289354517229
124.45295258867493
141.57267715541207
166.9933184930407
201.96720498775784
203.45387904079217
168.532786332759
143.15203830372965
126.06055906715265
115.40921416560427
109.26127542471869
105.96679060387441
104.32209934835079
103.55396123064558
103.2168119603065
103.07709282114547
103.02217494908872
103.0016169980547
102.99427578866974
102.99182572243791
102.99125505843561
102.99182572227036
102.99427578811672
103.00161701039787
103.02217498466983
103.07709271372254
103.21681205235264
103.55396173629532
104.32209921902012
105.96679289064308
109.26127241155268
115.40921738337914
126.06054946211496
143.15204125135685
168.53281937382195
203.45387873384303
206.4370417315658
171.62163455801593
146.3199990405095
129.28395014077705
118.66888327792395
112.54310820149354
109.26126998836713
107.62332872477437
106.85856851649967
106.52300881672942
106.38399543169521
106.32937425168222
106.30893478889915
106.30163855871002
106.29920433847535
106.29863749984439
106.29920433830891
106.30163855816046
106.30893480116944
106.32937428706654
106.38399532483345
106.52300890832694
106.85856901986286
107.62332859602104
109.26127226609778
112.54310519961771
118.66888648446411
129.28394056775116
146.3200019788007
171.62166749764071
206.43704142543896
212.0129194860304
177.3944939468452
152.2391987658857
135.30464478735578
124.75517101233677
118.66888270376296
115.40920819083274
113.7828893763083
113.02383924256387
112.69091669006652
112.55305249279068
112.4989056404933
112.4786522763865
112.47142551350892
112.4690154052203
112.4684543307152
112.46901540505557
112.47142551296479
112.47865228854305
112.49890567556486
112.5530523868344
112.69091678092667
113.02383974209091
113.78288924852698
115.40921045284585
118.66887972179951
124.7551741986943
135.30463527253826
152.2392016869807
177.3945266981036
212.01291918149346
221.68676578316695
187.40921948000178
162.50542885190643
145.74369859516824
135.30464391832945
129.28394869843308
126.0605522826023
124.45296039681287
123.70296209778269
123.37415180930157
123.23805061213184
123.18461994292194
123.16464329068951
123.15751833354344
123.15514311189901
123.15459030698948
123.15514311173666
123.15751833300709
123.16464330267789
123.18461997752392
123.2380505075536
123.3741518990208
123.7029625912688
124.4529602705668
126.06055451906464
129.28394574924826
135.3046470709083
145.74368917883896
162.5054317435591
187.4092519063814
221.6867654814657
237.22812154830987
203.497001154211
178.99397152971238
162.50542764157134
152.2391966886416
146.319996392514
143.1520304027304
141.57267118510947
140.83613242701568
140.5133525793991
140.37980157257545
140.3273931560703
140.30780644846183
140.30082323457864
140.29849606893933
140.29795457492483
140.29849606878034
140.300823234053
140.30780646021444
140.32739319000544
140.37980146997708
140.5133526674561
140.83613291156854
141.57267106113972
143.15203260038052
146.31999349365694
152.23919978861488
162.5054183800669
178.9939743745998
203.49703306131693
237.22812125126245
260.3287054466144
227.40833977684488
203.4970646930032
187.4092828721868
177.3945571407009
171.62169757068764
168.53284442669522
166.9933483570879
166.27560467908387
165.961152828862
165.83108528607093
165.78005845486237
165.76099340461425
165.75419799084824
165.75193395381345
165.7514072340407
165.75193395365866
165.75419799033682
165.76099341605283
165.78005848789954
165.8310851861628
165.9611529146352
166.2756051512177
166.99334823628888
168.53284656920982
171.62169474394284
177.39456016442747
187.40927383678962
203.4970674690146
227.40837091528164
260.3287051565939
292.13421888678215
260.32864782876925
237.22812389404956
221.68676702671894
212.01291993722919
206.4370416595532
203.45387403119804
201.9672048869927
201.2741639612957
200.97056740280803
200.8450034327438
200.79574858719116
200.77734748173074
200.77078935985443
200.76860457295618
200.7680963203436
200.7686045728068
200.7707893593609
200.7773474927705
200.79574861907997
200.84500333629998
200.97056748561633
201.27416441716042
201.96720477035396
203.45387610031406
206.43703892942386
212.01292285792414
221.68675829857924
237.22812657587275
260.3286779121057
292.13421860654165
