# vtk DataFile Version 2.0
Unstructured Grid Example
ASCII
DATASET UNSTRUCTURED_GRID

POINTS 961 float
0.100000001 0.00499999989 0
0.0966666639 0.00499999989 0
0.0933333337 0.00499999989 0
0.0900000036 0.00499999989 0
0.086666666 0.00499999989 0
0.0833333358 0.00499999989 0
0.0799999982 0.00499999989 0
0.0766666681 0.00499999989 0
0.0733333305 0.00499999989 0
0.0700000003 0.00499999989 0
0.0666666701 0.00499999989 0
0.0633333325 0.00499999989 0
0.0599999987 0.00499999989 0
0.0566666685 0.00499999989 0
0.0533333346 0.00499999989 0
0.0500000007 0.00499999989 0
0.0466666669 0.00499999989 0
0.043333333 0.00499999989 0
0.0399999991 0.00499999989 0
0.0366666652 0.00499999989 0
0.0333333351 0.00499999989 0
0.0299999993 0.00499999989 0
0.0266666673 0.00499999989 0
0.0233333334 0.00499999989 0
0.0199999996 0.00499999989 0
0.0166666675 0.00499999989 0
0.0133333337 0.00499999989 0
0.00999999978 0.00499999989 0
0.00666666683 0.00499999989 0
0.00333333341 0.00499999989 0
0.0 0.00499999989 0
0.100000001 0.00166666671 0
0.0966666639 0.00166666671 0
0.0933333337 0.00166666671 0
0.0900000036 0.00166666671 0
0.086666666 0.00166666671 0
0.0833333358 0.00166666671 0
0.0799999982 0.00166666671 0
0.0766666681 0.00166666671 0
0.0733333305 0.00166666671 0
0.0700000003 0.00166666671 0
0.0666666701 0.00166666671 0
0.0633333325 0.00166666671 0
0.0599999987 0.00166666671 0
0.0566666685 0.00166666671 0
0.0533333346 0.00166666671 0
0.0500000007 0.00166666671 0
0.0466666669 0.00166666671 0
0.043333333 0.00166666671 0
0.0399999991 0.00166666671 0
0.0366666652 0.00166666671 0
0.0333333351 0.00166666671 0
0.0299999993 0.00166666671 0
0.0266666673 0.00166666671 0
0.0233333334 0.00166666671 0
0.0199999996 0.00166666671 0
0.0166666675 0.00166666671 0
0.0133333337 0.00166666671 0
0.00999999978 0.00166666671 0
0.00666666683 0.00166666671 0
0.00333333341 0.00166666671 0
0.0 0.00166666671 0
0.100000001 -0.00166666671 0
0.0966666639 -0.00166666671 0
0.0933333337 -0.00166666671 0
0.0900000036 -0.00166666671 0
0.086666666 -0.00166666671 0
0.0833333358 -0.00166666671 0
0.0799999982 -0.00166666671 0
0.0766666681 -0.00166666671 0
0.0733333305 -0.00166666671 0
0.0700000003 -0.00166666671 0
0.0666666701 -0.00166666671 0
0.0633333325 -0.00166666671 0
0.0599999987 -0.00166666671 0
0.0566666685 -0.00166666671 0
0.0533333346 -0.00166666671 0
0.0500000007 -0.00166666671 0
0.0466666669 -0.00166666671 0
0.043333333 -0.00166666671 0
0.0399999991 -0.00166666671 0
0.0366666652 -0.00166666671 0
0.0333333351 -0.00166666671 0
0.0299999993 -0.00166666671 0
0.0266666673 -0.00166666671 0
0.0233333334 -0.00166666671 0
0.0199999996 -0.00166666671 0
0.0166666675 -0.00166666671 0
0.0133333337 -0.00166666671 0
0.00999999978 -0.00166666671 0
0.00666666683 -0.00166666671 0
0.00333333341 -0.00166666671 0
0.0 -0.00166666671 0
0.100000001 -0.00499999989 0
0.0966666639 -0.00499999989 0
0.0933333337 -0.00499999989 0
0.0900000036 -0.00499999989 0
0.086666666 -0.00499999989 0
0.0833333358 -0.00499999989 0
0.0799999982 -0.00499999989 0
0.0766666681 -0.00499999989 0
0.0733333305 -0.00499999989 0
0.0700000003 -0.00499999989 0
0.0666666701 -0.00499999989 0
0.0633333325 -0.00499999989 0
0.0599999987 -0.00499999989 0
0.0566666685 -0.00499999989 0
0.0533333346 -0.00499999989 0
0.0500000007 -0.00499999989 0
0.0466666669 -0.00499999989 0
0.043333333 -0.00499999989 0
0.0399999991 -0.00499999989 0
0.0366666652 -0.00499999989 0
0.0333333351 -0.00499999989 0
0.0299999993 -0.00499999989 0
0.0266666673 -0.00499999989 0
0.0233333334 -0.00499999989 0
0.0199999996 -0.00499999989 0
0.0166666675 -0.00499999989 0
0.0133333337 -0.00499999989 0
0.00999999978 -0.00499999989 0
0.00666666683 -0.00499999989 0
0.00333333341 -0.00499999989 0
0.0 -0.00499999989 0
0.100000001 -0.00833333377 0
0.0966666639 -0.00833333377 0
0.0933333337 -0.00833333377 0
0.0900000036 -0.00833333377 0
0.086666666 -0.00833333377 0
0.0833333358 -0.00833333377 0
0.0799999982 -0.00833333377 0
0.0766666681 -0.00833333377 0
0.0733333305 -0.00833333377 0
0.0700000003 -0.00833333377 0
0.0666666701 -0.00833333377 0
0.0633333325 -0.00833333377 0
0.0599999987 -0.00833333377 0
0.0566666685 -0.00833333377 0
0.0533333346 -0.00833333377 0
0.0500000007 -0.00833333377 0
0.0466666669 -0.00833333377 0
0.043333333 -0.00833333377 0
0.0399999991 -0.00833333377 0
0.0366666652 -0.00833333377 0
0.0333333351 -0.00833333377 0
0.0299999993 -0.00833333377 0
0.0266666673 -0.00833333377 0
0.0233333334 -0.00833333377 0
0.0199999996 -0.00833333377 0
0.0166666675 -0.00833333377 0
0.0133333337 -0.00833333377 0
0.00999999978 -0.00833333377 0
0.00666666683 -0.00833333377 0
0.00333333341 -0.00833333377 0
0.0 -0.00833333377 0
0.100000001 -0.0116666667 0
0.0966666639 -0.0116666667 0
0.0933333337 -0.0116666667 0
0.0900000036 -0.0116666667 0
0.086666666 -0.0116666667 0
0.0833333358 -0.0116666667 0
0.0799999982 -0.0116666667 0
0.0766666681 -0.0116666667 0
0.0733333305 -0.0116666667 0
0.0700000003 -0.0116666667 0
0.0666666701 -0.0116666667 0
0.0633333325 -0.0116666667 0
0.0599999987 -0.0116666667 0
0.0566666685 -0.0116666667 0
0.0533333346 -0.0116666667 0
0.0500000007 -0.0116666667 0
0.0466666669 -0.0116666667 0
0.043333333 -0.0116666667 0
0.0399999991 -0.0116666667 0
0.0366666652 -0.0116666667 0
0.0333333351 -0.0116666667 0
0.0299999993 -0.0116666667 0
0.0266666673 -0.0116666667 0
0.0233333334 -0.0116666667 0
0.0199999996 -0.0116666667 0
0.0166666675 -0.0116666667 0
0.0133333337 -0.0116666667 0
0.00999999978 -0.0116666667 0
0.00666666683 -0.0116666667 0
0.00333333341 -0.0116666667 0
0.0 -0.0116666667 0
0.100000001 -0.0149999997 0
0.0966666639 -0.0149999997 0
0.0933333337 -0.0149999997 0
0.0900000036 -0.0149999997 0
0.086666666 -0.0149999997 0
0.0833333358 -0.0149999997 0
0.0799999982 -0.0149999997 0
0.0766666681 -0.0149999997 0
0.0733333305 -0.0149999997 0
0.0700000003 -0.0149999997 0
0.0666666701 -0.0149999997 0
0.0633333325 -0.0149999997 0
0.0599999987 -0.0149999997 0
0.0566666685 -0.0149999997 0
0.0533333346 -0.0149999997 0
0.0500000007 -0.0149999997 0
0.0466666669 -0.0149999997 0
0.043333333 -0.0149999997 0
0.0399999991 -0.0149999997 0
0.0366666652 -0.0149999997 0
0.0333333351 -0.0149999997 0
0.0299999993 -0.0149999997 0
0.0266666673 -0.0149999997 0
0.0233333334 -0.0149999997 0
0.0199999996 -0.0149999997 0
0.0166666675 -0.0149999997 0
0.0133333337 -0.0149999997 0
0.00999999978 -0.0149999997 0
0.00666666683 -0.0149999997 0
0.00333333341 -0.0149999997 0
0.0 -0.0149999997 0
0.100000001 -0.0183333326 0
0.0966666639 -0.0183333326 0
0.0933333337 -0.0183333326 0
0.0900000036 -0.0183333326 0
0.086666666 -0.0183333326 0
0.0833333358 -0.0183333326 0
0.0799999982 -0.0183333326 0
0.0766666681 -0.0183333326 0
0.0733333305 -0.0183333326 0
0.0700000003 -0.0183333326 0
0.0666666701 -0.0183333326 0
0.0633333325 -0.0183333326 0
0.0599999987 -0.0183333326 0
0.0566666685 -0.0183333326 0
0.0533333346 -0.0183333326 0
0.0500000007 -0.0183333326 0
0.0466666669 -0.0183333326 0
0.043333333 -0.0183333326 0
0.0399999991 -0.0183333326 0
0.0366666652 -0.0183333326 0
0.0333333351 -0.0183333326 0
0.0299999993 -0.0183333326 0
0.0266666673 -0.0183333326 0
0.0233333334 -0.0183333326 0
0.0199999996 -0.0183333326 0
0.0166666675 -0.0183333326 0
0.0133333337 -0.0183333326 0
0.00999999978 -0.0183333326 0
0.00666666683 -0.0183333326 0
0.00333333341 -0.0183333326 0
0.0 -0.0183333326 0
0.100000001 -0.0216666665 0
0.0966666639 -0.0216666665 0
0.0933333337 -0.0216666665 0
0.0900000036 -0.0216666665 0
0.086666666 -0.0216666665 0
0.0833333358 -0.0216666665 0
0.0799999982 -0.0216666665 0
0.0766666681 -0.0216666665 0
0.0733333305 -0.0216666665 0
0.0700000003 -0.0216666665 0
0.0666666701 -0.0216666665 0
0.0633333325 -0.0216666665 0
0.0599999987 -0.0216666665 0
0.0566666685 -0.0216666665 0
0.0533333346 -0.0216666665 0
0.0500000007 -0.0216666665 0
0.0466666669 -0.0216666665 0
0.043333333 -0.0216666665 0
0.0399999991 -0.0216666665 0
0.0366666652 -0.0216666665 0
0.0333333351 -0.0216666665 0
0.0299999993 -0.0216666665 0
0.0266666673 -0.0216666665 0
0.0233333334 -0.0216666665 0
0.0199999996 -0.0216666665 0
0.0166666675 -0.0216666665 0
0.0133333337 -0.0216666665 0
0.00999999978 -0.0216666665 0
0.00666666683 -0.0216666665 0
0.00333333341 -0.0216666665 0
0.0 -0.0216666665 0
0.100000001 -0.0250000004 0
0.0966666639 -0.0250000004 0
0.0933333337 -0.0250000004 0
0.0900000036 -0.0250000004 0
0.086666666 -0.0250000004 0
0.0833333358 -0.0250000004 0
0.0799999982 -0.0250000004 0
0.0766666681 -0.0250000004 0
0.0733333305 -0.0250000004 0
0.0700000003 -0.0250000004 0
0.0666666701 -0.0250000004 0
0.0633333325 -0.0250000004 0
0.0599999987 -0.0250000004 0
0.0566666685 -0.0250000004 0
0.0533333346 -0.0250000004 0
0.0500000007 -0.0250000004 0
0.0466666669 -0.0250000004 0
0.043333333 -0.0250000004 0
0.0399999991 -0.0250000004 0
0.0366666652 -0.0250000004 0
0.0333333351 -0.0250000004 0
0.0299999993 -0.0250000004 0
0.0266666673 -0.0250000004 0
0.0233333334 -0.0250000004 0
0.0199999996 -0.0250000004 0
0.0166666675 -0.0250000004 0
0.0133333337 -0.0250000004 0
0.00999999978 -0.0250000004 0
0.00666666683 -0.0250000004 0
0.00333333341 -0.0250000004 0
0.0 -0.0250000004 0
0.100000001 -0.0283333343 0
0.0966666639 -0.0283333343 0
0.0933333337 -0.0283333343 0
0.0900000036 -0.0283333343 0
0.086666666 -0.0283333343 0
0.0833333358 -0.0283333343 0
0.0799999982 -0.0283333343 0
0.0766666681 -0.0283333343 0
0.0733333305 -0.0283333343 0
0.0700000003 -0.0283333343 0
0.0666666701 -0.0283333343 0
0.0633333325 -0.0283333343 0
0.0599999987 -0.0283333343 0
0.0566666685 -0.0283333343 0
0.0533333346 -0.0283333343 0
0.0500000007 -0.0283333343 0
0.0466666669 -0.0283333343 0
0.043333333 -0.0283333343 0
0.0399999991 -0.0283333343 0
0.0366666652 -0.0283333343 0
0.0333333351 -0.0283333343 0
0.0299999993 -0.0283333343 0
0.0266666673 -0.0283333343 0
0.0233333334 -0.0283333343 0
0.0199999996 -0.0283333343 0
0.0166666675 -0.0283333343 0
0.0133333337 -0.0283333343 0
0.00999999978 -0.0283333343 0
0.00666666683 -0.0283333343 0
0.00333333341 -0.0283333343 0
0.0 -0.0283333343 0
[...]
POINT_DATA 961
SCALARS Temp float 1
LOOKUP_TABLE default
249.34669194249926
217.67553935565923
197.71879150967584
186.67873366628828
181.28360850725434
178.92817518107387
177.9970380157776
177.65921728244135
177.54533302150728
177.50927443249128
177.49845348996186
177.4953524334334
177.4944984755699
177.49427150163913
177.49421374208805
177.4942026256977
177.49421374208455
177.49427150162452
177.4944984760292
177.49535243523493
177.4984534827492
177.50927444102993
177.54533308776973
177.65921726409127
177.99703858150892
178.92817421635016
181.28360995317402
186.67872826890056
197.71879367490428
217.6755674245394
249.3466916732716
217.67556946586882
184.94752531182053
164.32161577367486
152.9090134997383
147.33048698753953
144.89436169822918
143.9310811572674
143.58151373618387
143.46364275992644
143.4263140786411
143.41510984820638
143.41189838914786
143.41101388825032
143.41077876216502
143.41071892037837
143.4107074021946
143.41071892037485
143.41077876214996
143.411013888726
143.4118983910137
143.41510984073767
143.42631408748073
143.4636428285137
143.5815137171916
143.9310817425854
144.8943607003162
147.3304884827743
152.9090079194435
164.3216180116591
184.94755431933606
217.6755691874363
197.71879500171323
164.32158762411305
143.26619831845758
131.61012705502154
125.90921959667378
123.4180626687634
122.43238578478406
122.07446671514698
121.95370812339583
121.91544386408256
121.90395297076068
121.9006578035105
121.89974985741509
121.89950840380513
121.89944693001523
121.89943509476359
121.89944693001146
121.89950840378967
121.8997498579035
121.90065780542507
121.90395296309933
121.91544387314566
121.95370819367751
122.07446669568976
122.43238638386195
123.41806164794345
125.9092211251255
131.6101213537419
143.26620060342043
164.3216172294761
197.71879471708974
186.67872857016945
152.90897611147273
131.61011794266435
119.81264916077218
114.03863993762245
111.51361813573338
110.51374716585501
110.15038539962725
110.0276960434959
109.98879150857012
109.97710029229724
109.973745523767
109.97282060208686
109.9725744976944
109.97251180855335
109.9724997350233
109.9725118085495
109.97257449767854
109.97282060258445
109.97374552571652
109.97710028450003
109.98879151778749
110.0276961149203
110.15038537985902
110.51374777375388
111.51361710058046
114.0386414861718
119.81264338806935
131.61012025447374
152.90900605235345
186.6787282818919
181.2836103047464
147.33045654767102
125.90921774494947
114.03864734825406
108.2255631424893
105.68177528653617
104.67374729169941
104.3071463818633
104.18326995206313
104.14395991241345
104.13213838928208
104.1287439108535
104.12780743379737
104.12755810232159
104.12749455570257
104.12748231211019
104.12749455569866
104.12755810230537
104.12780743430112
104.1287439128265
104.13213838139588
104.1439599217294
104.18327002419772
104.3071463619037
104.67374790474123
105.6817742432723
108.22556470195005
114.03864153789891
125.90922007037959
147.33048665527573
181.28361001459896
178.9281749134405
144.8943290430262
123.4180586233376
111.51362335039866
105.68177305118034
103.12860509926881
102.116327423996
101.74796876081041
101.62342278692992
101.58387572606107
101.57197552773735
101.56855636296244
101.56761251144192
101.56736107162394
101.5672969532697
101.56728459468673
101.56729695326567
101.56736107160759
101.56761251194968
101.56855636495013
101.57197551979662
101.58387573543546
101.62342285947055
101.74796874074254
102.11632803976316
103.12860405185059
105.68177461597294
111.51361752222931
123.41806095495342
144.89435922471847
178.9281746224616
177.9970388711164
143.93104963178598
122.43238292398
110.51375359367906
104.6737462693054
102.11632864569148
101.10203866806617
100.73280962366017
100.60791741194438
100.56824267258125
100.55629846814942
100.55286501441056
100.5519167603621
100.5516640264618
100.5515995486245
100.55158711653709
100.55159954862057
100.55166402644545
100.55191676087236
100.5528650164068
100.55629846017766
100.56824268198767
100.60791748469833
100.7328096035361
101.10203928514846
102.11632759634078
104.67374783645762
110.51374775788342
122.43238525813834
143.93107984328566
177.99703857981206
177.65921760306773
143.5814816456776
122.07446328658709
110.15039125578974
104.30714477900375
101.74796940095489
100.73280903981427
100.36318558402891
100.23812901533188
100.19839089322011
100.18642390538213
100.18298276138998
100.18203205268104
100.1817785738613
100.18171388326793
100.18170140684548
100.18171388326398
100.18177857384494
100.18203205319261
100.18298276339115
100.18642389739422
100.19839090264284
100.23812908818877
100.36318556387802
100.7328096574768
101.74796835078278
104.3071463471096
110.15038541701044
122.07446562170283
143.58151186817443
177.65921731164897
177.54533338760675
143.46361071245934
121.95370474256984
110.0277019497928
104.18326839842211
101.62342347716347
100.60791687793274
100.23812906547064
100.1130006636878
100.07323350251478
100.06125559295262
100.05781060239978
100.05685861672445
100.05660473626645
100.0565399273206
100.05652742570568
100.05653992731672
100.05660473625005
100.05685861723691
100.05781060440323
100.06125558495683
100.07323351194512
100.11300073659059
100.23812904530786
100.6079174958306
101.62342242667003
104.1832699668833
110.02769610993532
121.95370707801975
143.4636409387219
177.5453330961515
177.50927471731788
143.42628194575272
121.91544039687984
109.98879732761608
104.14395827016061
101.58387632738231
100.56824204923856
100.19839085398426
100.07323341306734
100.03345393671081
100.02147117180415
100.01802439216807
100.01707178679419
100.01681770364219
100.01675283287811
100.01674031779393
100.01675283287423
100.01681770362575
100.01707178730705
100.01802439417271
100.02147116380466
100.03345394614455
100.07323348598905
100.19839083381662
100.56824266722488
101.58387527677216
104.14395983874513
109.98879148739498
121.91544273243909
143.42631217322491
177.50927442585171
177.498453766535
143.4150777063786
121.90394949473963
109.97710610253706
104.13213673796676
101.57197612000068
100.55629783566002
100.18642385701062
100.06125549435441
100.02147116265833
100.00948639026927
100.00603883558996
100.00508594948491
100.00483177058712
100.00476686952067
100.00475434766656
100.00476686951671
100.00483177057063
100.00508594999779
100.00603883759514
100.0094863822683
100.02147117209331
100.06125556728325
100.18642383684114
100.55629845367747
101.57197506935091
104.13213830659139
109.97710026220074
121.90395183033264
143.41510793421847
177.49845347506587
177.49535271689936
143.41186625434358
121.90065433479604
109.97375134149347
104.12874226706326
101.56855696282409
100.55286438953182
100.18298272065482
100.05781051144328
100.01802439067073
100.00603884324063
100.00259097498564
100.00163796997218
100.00138374871125
100.0013188337048
100.00130630865323
100.0013188337008
100.00138374869485
100.00163797048516
100.00259097699104
100.0060388352389
100.01802440010613
100.05781058437465
100.18298270048456
100.55286500755946
101.56855591216156
104.1287438357003
109.97374550112234
121.90065667039897
143.41189648229008
177.49535242542936
177.4944987580858
143.4109817524305
121.89974638768685
109.97282641879569
104.12780578896326
101.56761311025829
100.55191613442835
100.18203201089128
100.05685852471142
100.01707178424083
100.00508595607944
100.00163796891582
100.0006849166994
100.00043067785923
100.000365756832
100.00035323036171
100.00036575682802
100.00043067784271
100.00068491721237
100.00163797092114
100.00508594807755
100.0170717936764
100.05685859764363
100.18203199072082
100.55191675245908
101.56761205959192
104.12780735760393
109.97282057841443
121.89974872329269
143.41101198040673
177.49449846661574
177.49427178377536
143.41074662594352
121.89950493367215
109.97258031399447
104.12755645706969
101.56736167002093
100.55166340010503
100.18177853164825
100.05660464382913
100.01681770066462
100.00483177675741
100.00138374723056
100.00043067743478
100.00017643175583
100.00011150829167
100.00009898123156
100.00011150828765
100.0001764317392
100.00043067794776
100.00138374923588
100.00483176875538
100.01681771010037
100.0566047167617
100.18177851147772
100.5516640181368
101.56736061935354
104.1275580257115
109.97257447361045
121.89950726927854
143.41077685392784
177.49427149230527
177.49421402426208
143.41068678419364
121.89944345992184
109.97251762489503
104.12749291049175
101.56729755170853
100.55159892230935
100.1817138410968
100.05653983492533
100.01675282994269
100.00476687573325
100.00131883226626
100.00036575644975
100.00011150833384
100.00004658396935
100.00003405668606
100.00004658396537
100.00011150831732
100.00036575696281
100.00131883427167
100.00476686773125
100.01675283937847
100.05653990785795
100.18171382092626
100.55159954034147
101.56729650104081
104.12749447913376
109.97251178451027
121.89944579552844
143.41071701217984
177.494213732792
177.49420290788814
143.41067526602643
121.89943162468775
109.97250555138281
104.12748066691746
101.5672851931439
100.55158649024021
100.18170136469281
100.05652733332887
100.01674031487707
100.00475435389774
100.00130630723328
100.000353229998
100.00009898129225
100.00003405670458
100.00002152936509
100.00003405670064
100.00009898127583
100.00035323051101
100.00130630923864
100.00475434589578
100.01674032431276
100.05652740626155
100.18170134452234
100.55158710827244
101.56728414247607
104.12748223555957
109.97249971099794
121.89943396029433
143.41070549401303
177.4942026164181
177.4942140242722
143.41068678420424
121.8994434599326
109.97251762490599
104.12749291050291
101.56729755171982
100.55159892232066
100.18171384110819
100.0565398349367
100.01675282995414
100.0047668757447
100.00131883227769
100.0003657564612
100.00011150834521
100.00004658398083
100.0000340566975
100.00004658397683
100.00011150832873
100.00036575697428
100.00131883428313
100.00476686774272
100.01675283938985
100.05653990786945
100.1817138209377
100.5515995403528
101.56729650105211
104.12749447914491
109.97251178452127
121.89944579553922
143.41071701219045
177.4942137328021
177.49427178381293
143.41074662598234
121.8995049337119
109.972580314035
104.1275564571108
101.56736167006235
100.55166340014664
100.18177853169003
100.05660464387098
100.01681770070655
100.00483177679934
100.00138374727243
100.00043067747674
100.00017643179774
100.00011150833356
100.00009898127358
100.0001115083296
100.00017643178123
100.0004306779898
100.00138374927789
100.00483176879737
100.01681771014222
100.05660471680358
100.18177851151965
100.55166401817846
101.56736061939496
104.12755802575256
109.97257447365098
121.89950726931838
143.41077685396644
177.49427149234268
177.4944987582273
143.41098175257696
121.8997463878373
109.97282641894881
104.12780578911827
101.56761311041454
100.55191613458534
100.1820320110487
100.05685852486907
100.01707178439861
100.00508595623732
100.00163796907373
100.00068491685735
100.00043067801711
100.00036575698985
100.00035323051966
100.00036575698604
100.0004306780007
100.00068491737048
100.00163797107916
100.00508594823552
100.01707179383418
100.05685859780147
100.18203199087836
100.55191675261628
101.56761205974828
104.12780735775902
109.97282057856758
121.89974872344297
143.41101198055318
177.4944984667571
177.49535271746956
143.41186625493418
121.90065433540215
109.97375134211056
104.12874226768764
101.56855696345306
100.5528643901636
100.18298272128813
100.05781051207725
100.018024391305
100.0060388438752
100.00259097562034
100.00163797060685
100.00138374934596
100.00131883433951
100.00130630928798
100.00131883433558
100.0013837493295
100.00163797111986
100.00259097762581
100.00603883587357
100.01802440074053
100.05781058500872
100.18298270111794
100.55286500819136
101.56855591279077
104.12874383632473
109.9737455017393
121.90065667100501
143.41189648288073
177.4953524259996
177.49845377200444
143.41507771204215
121.90394950054922
109.9771061084491
104.13213674394605
101.57197612602101
100.55629784170375
100.18642386306666
100.06125550041632
100.02147116872293
100.00948639633502
100.00603884165625
100.00508595555138
100.00483177665362
100.00476687558724
100.00475435373318
100.0047668755833
100.0048317766372
100.00508595606429
100.00603884366136
100.00948638833405
100.02147117815795
100.0612555733452
100.18642384289717
100.55629845972116
101.57197507537137
104.13213831257058
109.9771002681127
121.90395183614208
143.41510793988195
177.4984534805353
177.50927471282841
143.42628194110483
121.91544039211428
109.98879732276865
104.14395826526078
101.58387632245126
100.5682420442902
100.19839084902713
100.07323340810612
100.0334539317478
100.02147116684033
100.01802438720408
100.01707178183013
100.01681769867812
100.01675282791395
100.0167403128298
100.01675282791005
100.01681769866173
100.0170717823429
100.01802438920868
100.02147115884091
100.03345394118146
100.07323348102783
100.19839082885953
100.56824266227662
101.58387527184104
104.14395983384516
109.98879148254755
121.91544272767318
143.42631216857683
177.50927442136222
177.54533344431852
143.46361077116126
121.95370480272292
110.02770201092495
104.18326846016345
101.62342353925342
100.60791694020593
100.23812912783258
100.1130007260892
100.0732335649325
100.0612556553766
100.05781066482592
100.05685867915139
100.0566047986936
100.05653998974779
100.0565274881329
100.05653998974394
100.05660479867717
100.05685867966385
100.0578106668294
100.0612556473807
100.07323357436283
100.11300079899198
100.23812910766976
100.60791755810381
101.62342248875993
104.18327002862455
110.02769617106736
121.95370713817292
143.46364099742397
177.54533315286335
177.65921755765234
143.58148159867645
122.0744632384456
110.15039120689303
104.30714472964794
101.74796935134346
100.73280899007247
100.36318553422599
100.23812896550258
100.19839084338028
100.18642385553837
100.18298271154488
100.1820320028354
100.18177852401561
100.18171383342197
100.18170135699955
100.1817138334181
100.18177852399917
100.18203200334705
100.18298271354598
100.18642384755043
100.19839085280306
100.23812903835946
100.36318551407504
100.73280960773495
101.74796830117126
104.30714629775376
110.15038536811367
122.07446557356134
143.58151182117336
177.65921726623367
177.9970395326328
143.931050316207
122.43238362449496
110.51375430451431
104.6737469861603
102.1163293657378
101.10203938965336
100.73281034592756
100.60791813448819
100.56824339522893
100.55629919083361
100.55286573710671
100.55191748306211
100.55166474916284
100.5516002713258
100.55158783923858
100.551600271322
100.55166474914654
100.55191748357234
100.55286573910303
100.55629918286186
100.56824340463544
100.60791820724207
100.73281032580353
101.10204000673576
102.11632831638713
104.67374855331249
110.5137484687187
122.43238595865336
143.9310805277067
177.9970392413285
178.9281753863179
144.89432953213012
123.41805912355915
111.51362385750373
105.68177356212773
103.12860561215173
102.11632793776276
101.74796927494562
101.62342330120666
101.58387624038822
101.57197604208142
101.56855687731165
101.5676130257927
101.56736158597525
101.56729746762106
101.56728510903815
101.56729746761715
101.56736158595896
101.56761302630053
101.5685568792994
101.57197603414055
101.58387624976267
101.62342337374731
101.74796925487787
102.11632855353008
103.12860456473373
105.68177512692046
111.51361802933438
123.4180614551749
144.89435971382252
178.92817509533918
181.28360841216102
147.33045459047858
125.90921574412876
114.03864532094002
108.22556110072418
105.68177323767082
104.67374523967317
104.30714432855179
104.1832678982699
104.14395785845221
104.13213633526577
104.12874185682008
104.12780537975883
104.12755604828153
104.12749250166215
104.12748025806975
104.12749250165837
104.12755604826549
104.12780538026263
104.128741858793
104.13213632737941
104.1439578677681
104.18326797040443
104.30714430859221
104.6737458527151
105.68177219440705
108.22556266018502
114.03863951058483
125.90921806955888
147.33048469808327
181.2836081220138
186.67873300154156
152.90898069287928
131.6101226230562
119.81265389939628
114.03864470681934
111.51362291933272
110.513751955595
110.15039019176106
110.02770083649229
109.98879630185655
109.97710508567545
109.97375031717301
109.97282539550089
109.97257929111046
109.97251660196999
109.97250452844
109.97251660196619
109.97257929109468
109.97282539599829
109.97375031912242
109.9771050778783
109.98879631107377
110.02770090791645
110.15039017199271
110.51375256349374
111.51362188417977
114.03864625536866
119.81264812669353
131.61012493486567
152.90901063375983
186.678732713264
197.71878978564516
164.32158223237283
143.26619281254779
131.61012148330798
125.9092139912518
123.41805704788625
122.43238015749976
122.07446108543317
121.95370249282955
121.91543823323661
121.90394733982822
121.90065217255228
121.89974422644963
121.89950277283776
121.89944129904717
121.89942946379551
121.89944129904346
121.89950277282215
121.8997442269379
121.90065217446677
121.90394733216661
121.91543824229952
121.953702563111
122.07446106597573
122.43238075657761
123.41805602706627
125.90921551970344
131.6101157820284
143.2661950975107
164.32161183773627
197.7187895010218
217.67559294580985
184.9475495770217
164.32164053916983
152.9090385460892
147.33051217348833
144.8943869462207
143.9311064302205
143.58153901834567
143.46366804524087
143.426339364968
143.415135134841
143.41192367587166
143.41103917499885
143.41080404892026
143.41074420713528
143.41073268895167
143.41074420713156
143.4108040489051
143.41103917547449
143.4119236777373
143.41513512737205
143.4263393738072
143.463668113828
143.58153899935317
143.93110701553832
144.89438594830744
147.33051366872323
152.90903296579455
164.32164277715412
184.94757858453667
217.67559266737763
249.34669171984575
217.67553912552876
197.71879127475532
186.6787334287045
181.28360826839193
178.92817494167613
177.9970377761806
177.6592170427769
177.54533278182205
177.5092741928003
177.4984532502688
177.4953521937398
177.4944982358761
177.49427126194524
177.4942135023942
177.49420238600382
177.49421350239066
177.4942712619306
177.4944982363353
177.4953521955412
177.498453243056
177.50927420133831
177.54533284808434
177.65921702442668
177.99703834191172
178.92817397695208
181.28360971431155
186.67872803131698
197.71879343998376
217.67556719440918
249.3466914506182
