# vtk DataFile Version 2.0
Unstructured Grid Example
ASCII
DATASET UNSTRUCTURED_GRID

POINTS 961 float
0.400000004 0.01999999956 0
0.3866666556 0.01999999956 0
0.3733333348 0.01999999956 0
0.3600000144 0.01999999956 0
0.346666664 0.01999999956 0
0.3333333432 0.01999999956 0
0.3199999928 0.01999999956 0
0.3066666724 0.01999999956 0
0.293333322 0.01999999956 0
0.2800000012 0.01999999956 0
0.2666666804 0.01999999956 0
0.25333333 0.01999999956 0
0.2399999948 0.01999999956 0
0.226666674 0.01999999956 0
0.2133333384 0.01999999956 0
0.2000000028 0.01999999956 0
0.1866666676 0.01999999956 0
0.173333332 0.01999999956 0
0.1599999964 0.01999999956 0
0.1466666608 0.01999999956 0
0.1333333404 0.01999999956 0
0.1199999972 0.01999999956 0
0.1066666692 0.01999999956 0
0.0933333336 0.01999999956 0
0.0799999984 0.01999999956 0
0.06666667 0.01999999956 0
0.0533333348 0.01999999956 0
0.03999999912 0.01999999956 0
0.02666666732 0.01999999956 0
0.01333333364 0.01999999956 0
0.0 0.01999999956 0
0.400000004 0.00666666684 0
0.3866666556 0.00666666684 0
0.3733333348 0.00666666684 0
0.3600000144 0.00666666684 0
0.346666664 0.00666666684 0
0.3333333432 0.00666666684 0
0.3199999928 0.00666666684 0
0.3066666724 0.00666666684 0
0.293333322 0.00666666684 0
0.2800000012 0.00666666684 0
0.2666666804 0.00666666684 0
0.25333333 0.00666666684 0
0.2399999948 0.00666666684 0
0.226666674 0.00666666684 0
0.2133333384 0.00666666684 0
0.2000000028 0.00666666684 0
0.1866666676 0.00666666684 0
0.173333332 0.00666666684 0
0.1599999964 0.00666666684 0
0.1466666608 0.00666666684 0
0.1333333404 0.00666666684 0
0.1199999972 0.00666666684 0
0.1066666692 0.00666666684 0
0.0933333336 0.00666666684 0
0.0799999984 0.00666666684 0
0.06666667 0.00666666684 0
0.0533333348 0.00666666684 0
0.03999999912 0.00666666684 0
0.02666666732 0.00666666684 0
0.01333333364 0.00666666684 0
0.0 0.00666666684 0
0.400000004 -0.00666666684 0
0.3866666556 -0.00666666684 0
0.3733333348 -0.00666666684 0
0.3600000144 -0.00666666684 0
0.346666664 -0.00666666684 0
0.3333333432 -0.00666666684 0
0.3199999928 -0.00666666684 0
0.3066666724 -0.00666666684 0
0.293333322 -0.00666666684 0
0.2800000012 -0.00666666684 0
0.2666666804 -0.00666666684 0
0.25333333 -0.00666666684 0
0.2399999948 -0.00666666684 0
0.226666674 -0.00666666684 0
0.2133333384 -0.00666666684 0
0.2000000028 -0.00666666684 0
0.1866666676 -0.00666666684 0
0.173333332 -0.00666666684 0
0.1599999964 -0.00666666684 0
0.1466666608 -0.00666666684 0
0.1333333404 -0.00666666684 0
0.1199999972 -0.00666666684 0
0.1066666692 -0.00666666684 0
0.0933333336 -0.00666666684 0
0.0799999984 -0.00666666684 0
0.06666667 -0.00666666684 0
0.0533333348 -0.00666666684 0
0.03999999912 -0.00666666684 0
0.02666666732 -0.00666666684 0
0.01333333364 -0.00666666684 0
0.0 -0.00666666684 0
0.400000004 -0.01999999956 0
0.3866666556 -0.01999999956 0
0.3733333348 -0.01999999956 0
0.3600000144 -0.01999999956 0
0.346666664 -0.01999999956 0
0.3333333432 -0.01999999956 0
0.3199999928 -0.01999999956 0
0.3066666724 -0.01999999956 0
0.293333322 -0.01999999956 0
0.2800000012 -0.01999999956 0
0.2666666804 -0.01999999956 0
0.25333333 -0.01999999956 0
0.2399999948 -0.01999999956 0
0.226666674 -0.01999999956 0
0.2133333384 -0.01999999956 0
0.2000000028 -0.01999999956 0
0.1866666676 -0.01999999956 0
0.173333332 -0.01999999956 0
0.1599999964 -0.01999999956 0
0.1466666608 -0.01999999956 0
0.1333333404 -0.01999999956 0
0.1199999972 -0.01999999956 0
0.1066666692 -0.01999999956 0
0.0933333336 -0.01999999956 0
0.0799999984 -0.01999999956 0
0.06666667 -0.01999999956 0
0.0533333348 -0.01999999956 0
0.03999999912 -0.01999999956 0
0.02666666732 -0.01999999956 0
0.01333333364 -0.01999999956 0
0.0 -0.01999999956 0
0.400000004 -0.03333333508 0
0.3866666556 -0.03333333508 0
0.3733333348 -0.03333333508 0
0.3600000144 -0.03333333508 0
0.346666664 -0.03333333508 0
0.3333333432 -0.03333333508 0
0.3199999928 -0.03333333508 0
0.3066666724 -0.03333333508 0
0.293333322 -0.03333333508 0
0.2800000012 -0.03333333508 0
0.2666666804 -0.03333333508 0
0.25333333 -0.03333333508 0
0.2399999948 -0.03333333508 0
0.226666674 -0.03333333508 0
0.2133333384 -0.03333333508 0
0.2000000028 -0.03333333508 0
0.1866666676 -0.03333333508 0
0.173333332 -0.03333333508 0
0.1599999964 -0.03333333508 0
0.1466666608 -0.03333333508 0
0.1333333404 -0.03333333508 0
0.1199999972 -0.03333333508 0
0.1066666692 -0.03333333508 0
0.0933333336 -0.03333333508 0
0.0799999984 -0.03333333508 0
0.06666667 -0.03333333508 0
0.0533333348 -0.03333333508 0
0.03999999912 -0.03333333508 0
0.02666666732 -0.03333333508 0
0.01333333364 -0.03333333508 0
0.0 -0.03333333508 0
0.400000004 -0.0466666668 0
0.3866666556 -0.0466666668 0
0.3733333348 -0.0466666668 0
0.3600000144 -0.0466666668 0
0.346666664 -0.0466666668 0
0.3333333432 -0.0466666668 0
0.3199999928 -0.0466666668 0
0.3066666724 -0.0466666668 0
0.293333322 -0.0466666668 0
0.2800000012 -0.0466666668 0
0.2666666804 -0.0466666668 0
0.25333333 -0.0466666668 0
0.2399999948 -0.0466666668 0
0.226666674 -0.0466666668 0
0.2133333384 -0.0466666668 0
0.2000000028 -0.0466666668 0
0.1866666676 -0.0466666668 0
0.173333332 -0.0466666668 0
0.1599999964 -0.0466666668 0
0.1466666608 -0.0466666668 0
0.1333333404 -0.0466666668 0
0.1199999972 -0.0466666668 0
0.1066666692 -0.0466666668 0
0.0933333336 -0.0466666668 0
0.0799999984 -0.0466666668 0
0.06666667 -0.0466666668 0
0.0533333348 -0.0466666668 0
0.03999999912 -0.0466666668 0
0.02666666732 -0.0466666668 0
0.01333333364 -0.0466666668 0
0.0 -0.0466666668 0
0.400000004 -0.0599999988 0
0.3866666556 -0.0599999988 0
0.3733333348 -0.0599999988 0
0.3600000144 -0.0599999988 0
0.346666664 -0.0599999988 0
0.3333333432 -0.0599999988 0
0.3199999928 -0.0599999988 0
0.3066666724 -0.0599999988 0
0.293333322 -0.0599999988 0
0.2800000012 -0.0599999988 0
0.2666666804 -0.0599999988 0
0.25333333 -0.0599999988 0
0.2399999948 -0.0599999988 0
0.226666674 -0.0599999988 0
0.2133333384 -0.0599999988 0
0.2000000028 -0.0599999988 0
0.1866666676 -0.0599999988 0
0.173333332 -0.0599999988 0
0.1599999964 -0.0599999988 0
0.1466666608 -0.0599999988 0
0.1333333404 -0.0599999988 0
0.1199999972 -0.0599999988 0
0.1066666692 -0.0599999988 0
0.0933333336 -0.0599999988 0
0.0799999984 -0.0599999988 0
0.06666667 -0.0599999988 0
0.0533333348 -0.0599999988 0
0.03999999912 -0.0599999988 0
0.02666666732 -0.0599999988 0
0.01333333364 -0.0599999988 0
0.0 -0.0599999988 0
0.400000004 -0.0733333304 0
0.3866666556 -0.0733333304 0
0.3733333348 -0.0733333304 0
0.3600000144 -0.0733333304 0
0.346666664 -0.0733333304 0
0.3333333432 -0.0733333304 0
0.3199999928 -0.0733333304 0
0.3066666724 -0.0733333304 0
0.293333322 -0.0733333304 0
0.2800000012 -0.0733333304 0
0.2666666804 -0.0733333304 0
0.25333333 -0.0733333304 0
0.2399999948 -0.0733333304 0
0.226666674 -0.0733333304 0
0.2133333384 -0.0733333304 0
0.2000000028 -0.0733333304 0
0.1866666676 -0.0733333304 0
0.173333332 -0.0733333304 0
0.1599999964 -0.0733333304 0
0.1466666608 -0.0733333304 0
0.1333333404 -0.0733333304 0
0.1199999972 -0.0733333304 0
0.1066666692 -0.0733333304 0
0.0933333336 -0.0733333304 0
0.0799999984 -0.0733333304 0
0.06666667 -0.0733333304 0
0.0533333348 -0.0733333304 0
0.03999999912 -0.0733333304 0
0.02666666732 -0.0733333304 0
0.01333333364 -0.0733333304 0
0.0 -0.0733333304 0
0.400000004 -0.086666666 0
0.3866666556 -0.086666666 0
0.3733333348 -0.086666666 0
0.3600000144 -0.086666666 0
0.346666664 -0.086666666 0
0.3333333432 -0.086666666 0
0.3199999928 -0.086666666 0
0.3066666724 -0.086666666 0
0.293333322 -0.086666666 0
0.2800000012 -0.086666666 0
0.2666666804 -0.086666666 0
0.25333333 -0.086666666 0
0.2399999948 -0.086666666 0
0.226666674 -0.086666666 0
0.2133333384 -0.086666666 0
0.2000000028 -0.086666666 0
0.1866666676 -0.086666666 0
0.173333332 -0.086666666 0
0.1599999964 -0.086666666 0
0.1466666608 -0.086666666 0
0.1333333404 -0.086666666 0
0.1199999972 -0.086666666 0
0.1066666692 -0.086666666 0
0.0933333336 -0.086666666 0
0.0799999984 -0.086666666 0
0.06666667 -0.086666666 0
0.0533333348 -0.086666666 0
0.03999999912 -0.086666666 0
0.02666666732 -0.086666666 0
0.01333333364 -0.086666666 0
0.0 -0.086666666 0
0.400000004 -0.1000000016 0
0.3866666556 -0.1000000016 0
0.3733333348 -0.1000000016 0
0.3600000144 -0.1000000016 0
0.346666664 -0.1000000016 0
0.3333333432 -0.1000000016 0
0.3199999928 -0.1000000016 0
0.3066666724 -0.1000000016 0
0.293333322 -0.1000000016 0
0.2800000012 -0.1000000016 0
0.2666666804 -0.1000000016 0
0.25333333 -0.1000000016 0
0.2399999948 -0.1000000016 0
0.226666674 -0.1000000016 0
0.2133333384 -0.1000000016 0
0.2000000028 -0.1000000016 0
0.1866666676 -0.1000000016 0
0.173333332 -0.1000000016 0
0.1599999964 -0.1000000016 0
0.1466666608 -0.1000000016 0
0.1333333404 -0.1000000016 0
0.1199999972 -0.1000000016 0
0.1066666692 -0.1000000016 0
0.0933333336 -0.1000000016 0
0.0799999984 -0.1000000016 0
0.06666667 -0.1000000016 0
0.0533333348 -0.1000000016 0
0.03999999912 -0.1000000016 0
0.02666666732 -0.1000000016 0
0.01333333364 -0.1000000016 0
0.0 -0.1000000016 0
0.400000004 -0.1133333372 0
0.3866666556 -0.1133333372 0
0.3733333348 -0.1133333372 0
0.3600000144 -0.1133333372 0
0.346666664 -0.1133333372 0
0.3333333432 -0.1133333372 0
0.3199999928 -0.1133333372 0
0.3066666724 -0.1133333372 0
0.293333322 -0.1133333372 0
0.2800000012 -0.1133333372 0
0.2666666804 -0.1133333372 0
0.25333333 -0.1133333372 0
0.2399999948 -0.1133333372 0
0.226666674 -0.1133333372 0
0.2133333384 -0.1133333372 0
0.2000000028 -0.1133333372 0
0.1866666676 -0.1133333372 0
0.173333332 -0.1133333372 0
0.1599999964 -0.1133333372 0
0.1466666608 -0.1133333372 0
0.1333333404 -0.1133333372 0
0.1199999972 -0.1133333372 0
0.1066666692 -0.1133333372 0
0.0933333336 -0.1133333372 0
0.0799999984 -0.1133333372 0
0.06666667 -0.1133333372 0
0.0533333348 -0.1133333372 0
0.03999999912 -0.1133333372 0
0.02666666732 -0.1133333372 0
0.01333333364 -0.1133333372 0
0.0 -0.1133333372 0
0.400000004 -0.1266666652 0
0.3866666556 -0.1266666652 0
0.3733333348 -0.1266666652 0
[...]
POINT_DATA 961
SCALARS Temp float 1
LOOKUP_TABLE default
0.725299483100803
0.7542681747904508
0.7750571626083793
0.7901728222992955
0.8012482204740513
0.809403187176407
0.8154349713657651
0.8199174019544266
0.8232681345493824
0.8257931899850561
0.8277194560528689
0.8292172242921868
0.8304166329103373
0.8314204637340874
0.832313690520579
0.8331710534763048
0.8340639953831035
0.8350670376966898
0.8362644789936788
0.8377580581230168
0.8396762867886559
0.8421867363545721
0.8455116998501633
0.8499504450082348
0.8559090894062136
0.863942998607739
0.874817191114472
0.8895947095437301
0.9097712275897127
0.9375174011577263
0.9762764378346261
0.7655398276676483
0.7939456744607805
0.8145113738994313
0.8295442936011929
0.8405816612904773
0.848721016858752
0.854748098720164
0.8592312575061603
0.8625852862122889
0.865114716154818
0.8670456703549978
0.8685480805705149
0.8697519576892886
0.8707600807674477
0.8716574900110591
0.8725190328197966
0.8734162740279484
0.8744238564987897
0.8756261812531845
0.8771250437281434
0.8790489237494764
0.8815651907889926
0.8848956426688477
0.8893385101339071
0.8952979029521073
0.9033253618388775
0.9141785557374137
0.9289053352320635
0.9489697437026688
0.976433029072347
1.0142807453247233
2.64955522818244
2.653775371315458
2.665537029427352
2.676384833143672
2.6853551151599295
2.6924921535443893
2.698080286929974
2.7024264708551144
2.705802977076168
2.7084357814475464
2.710507707242473
2.7121657488325
2.7135290089419604
2.714696122287448
2.715751862203257
2.716773047957422
2.717834038717553
2.7190121216732948
2.7203930854531118
2.7220773251798223
2.7241868200646
2.726873214574994
2.7303271425659656
2.7347884278998924
2.7405555688827095
2.7479896436878146
2.757498653865917
2.7694606560640773
2.7839338954754718
2.799622663486563
2.8052550979077666
4.510090931237283
4.512393935970618
4.518046397326865
4.5251093624743035
4.531806127170859
4.537612081081981
4.54244197772865
4.546377071082575
4.549551745801823
4.552107630362882
4.554176102253612
4.5558730605123285
4.557299147479114
4.558542315190589
4.559681302851988
4.5607894503224164
4.561938646501035
4.563203354487829
4.5646647458388925
4.566414954910407
4.568561362679006
4.5712306115884855
4.574571472324557
4.578754772952652
4.583966124019815
4.590382239234646
4.598109562900284
4.60703259992488
4.616448988170287
4.623987089151271
4.62705835137039
6.3651314902848615
6.366357119896196
6.369669488664453
6.374154345818642
6.378930380046334
6.383418003417428
6.387378660756749
6.390756019799067
6.3935825386306995
6.395928838589982
6.397878166237532
6.399514245386395
6.400916317383297
6.402158000244316
6.4033081236436225
6.404432599326544
6.4055968254272
6.406868315124682
6.408319349634109
6.410029421319384
6.412087087747896
6.414590563231917
6.417645709870634
6.421359089727957
6.425821470719235
6.431073440364617
6.4370377163251025
6.443394112785353
6.449367803537668
6.453781629273325
6.45541512104411
8.216856148246315
8.217602640765367
8.219668173091737
8.22262545553054
8.225979953161948
8.229337169618523
8.232456204844482
8.235228356496862
8.237628496766124
8.239678374993321
8.241423371801316
8.242918992841425
8.2442237007715
8.245395652895583
8.246491738512775
8.247567954510332
8.248680515097409
8.249887259432876
8.251249021424217
8.252830587898469
8.254700726374937
8.256930493162029
8.259588478596575
8.262730965843364
8.266383661570263
8.270510413675785
8.27496413278214
8.279421707032895
8.283355466697838
8.28610460190734
8.287098402764366
10.066348498163354
10.066823924927451
10.06816427236468
10.070145670463964
10.072488265857153
10.074936451930004
10.077304852395939
10.079484803144299
10.08142937094888
10.083133193716987
10.084616096887956
10.0859117483385
10.087060616131303
10.088106049827699
10.089092424388694
10.090064586439123
10.091068049907879
10.09214949307399
10.093357183297016
10.094740920718754
10.096350978900876
10.098235332600941
10.100434118021152
10.102970019874686
10.105832933608516
10.108957893342279
10.112198091475056
10.115304725844503
10.117935654833799
10.119716681428363
10.120348627480634
11.91408619903347
11.914392410564872
11.915265253919868
11.916582548927607
11.91818291701987
11.9199068822771
11.921625775567472
11.923253015922871
11.924741728115913
11.92607590394171
11.92726073215807
11.928314644592833
11.929263698273935
11.930138034206678
11.930969879272213
11.931792600445322
11.932640391867452
11.93354821576942
11.934551662948923
11.935686370977503
11.936986566807667
11.938482204259124
11.940194016273018
11.94212586362823
11.944253973618213
11.946513880700623
11.948788572905134
11.950905192015545
11.952650081442332
11.95380729367217
11.954213436905478
13.760306473045926
13.760495455844543
13.761038092239641
13.761868344856765
13.762895978718326
13.764027213398377
13.7651812534255
13.766298965221566
13.767344257057559
13.768300825174087
13.769167231570046
13.769952138024422
13.770670550732484
13.771341224135963
13.771985035152575
13.772624068311808
13.773281145993064
13.773979536523502
13.774742594734354
13.77559307107315
13.776551789705543
13.77763536560383
13.778852599299649
13.780199368680513
13.781652172667327
13.783161459386585
13.784647245354142
13.7860008747579
13.787096590957942
13.787813550213647
13.788063377902667
15.605124893271883
15.605223710685436
15.605509028089212
15.60595027479323
15.606504771705666
15.607126731589352
15.607775002133401
15.608417758719192
15.609033995656258
15.609612660116973
15.610150658983065
15.610650640765908
15.611119086138215
15.611564888615362
15.611998392440164
15.612430786855256
15.612873731718926
15.613339074103198
15.613838524247672
15.614383149609903
15.61498253361788
15.615643446165903
15.61636788260304
15.617150472239054
15.617975471395951
15.618814050550831
15.61962312085802
15.620347280179457
15.620925071909351
15.621299292910914
15.621429001912945
17.44859683898594
17.44861772342173
17.4486791000519
17.44877737338353
17.448907256798073
17.449062603889615
17.449237229412667
17.449425544946113
17.449622947134554
17.449825959594477
17.45003220380437
17.450240261483838
17.45044949247575
17.450659849104113
17.45087170030456
17.4510856713142
17.451302497843344
17.451522882807485
17.451747346135473
17.451976056798202
17.452208638269298
17.45244394647129
17.452679823451525
17.452912861193596
17.45313821879264
17.45334957964732
17.4535393444335
17.45369914317781
17.45382068633222
17.453896856464787
17.453922818428385
17.55145134258353
17.55146859507754
17.551519487078046
17.55160155890652
17.551711128246968
17.551843798355968
17.55199498799204
17.55216037573258
17.552336211157684
17.552519472234792
17.55270790312561
17.552899960389535
17.55309470806701
17.553291692361547
17.553490808243925
17.553692166807863
17.553895967236283
17.554102367366617
17.554311349239974
17.554522574996067
17.55473523076825
17.554947863475512
17.555158217972654
17.555363106073862
17.555558337818645
17.555738770338746
17.555898522525762
17.556031386180823
17.55613142211337
17.556193664567427
17.556214800386744
17.6541991410699
17.654213677178447
17.654256680208917
17.654326417303093
17.654420256225972
17.654534985371725
17.65466716204495
17.654813421956298
17.654970717466448
17.655136460023524
17.65530858221093
17.65548552862956
17.655666200011115
17.65584987188558
17.656036096890396
17.65622459962814
17.656415170179514
17.656607553977338
17.65680133834501
17.656995835164164
17.6571899610824
17.657382122529157
17.65757011320502
17.65775104971991
17.657921363948383
17.658076885976627
17.658213039547313
17.6583251573831
17.658408897687195
17.6584607070686
17.65847824875967
17.756845382429262
17.75685783731548
17.756894766580118
17.756954916198154
17.757036358121194
17.757136697072536
17.75725330355401
17.757383530094906
17.75752488983299
17.757675174967858
17.757832522343307
17.75799542593169
17.758162710554547
17.75833348110512
17.758507053008536
17.758682871655807
17.758860427524215
17.759039166735356
17.759218399617257
17.759397209077882
17.759574362005626
17.759748231307917
17.75991673479222
17.76007731069626
17.7602269396884
17.760362233694753
17.760479599756767
17.760575476876703
17.760646628300684
17.76069045132802
17.760705254623716
17.859393928192656
17.859404755713154
17.85943691678518
17.859489480681493
17.85956100159379
17.85964965534828
17.859753397964827
17.859870117702805
17.859997767741977
17.86013446060354
17.860278528306488
17.860428543680577
17.86058331120027
17.860741836785582
17.86090327960629
17.861066892137398
17.861231954912224
17.861397706648848
17.861563273368255
17.861727599391088
17.8618893839921
17.86204703066861
17.862198613369294
17.862341874646056
17.86247425973533
17.862592998835026
17.86269523903838
17.862778220740523
17.862839484346804
17.862877081271318
17.862889757850056
17.96184769530651
17.96185722870795
17.961885585500696
17.96193205784404
17.961995536242696
17.962074601775363
17.96216763574829
17.96227292745051
17.962388772551517
17.962513546700986
17.962645757223825
17.96278406663731
17.962927292940705
17.96307439300368
17.963224430162445
17.96337653088219
17.963529836280546
17.963683449435827
17.963836382367685
17.963987505851897
17.964135505718012
17.96427885155679
17.964415780492878
17.964544307329927
17.964662261486087
17.964767358296097
17.964857303082184
17.96492992234745
17.964983311369803
17.965015980317993
17.96502697886038
18.060925021806558
18.06093350803302
18.060958777904716
18.061000280201377
18.06105714402401
18.061128242141578
18.061212267990665
18.06130781271231
18.061413438305888
18.061527734353692
18.061649360994593
18.061777071496056
18.06190971747825
18.062046241159255
18.06218565445426
18.0623270086375
18.06246935959529
18.06261172948187
18.06275306848492
18.062892219686102
18.063027890205245
18.06315863348204
18.063282844008405
18.063398773182644
18.0635045646282
18.063598313895717
18.063678149764463
18.063742332062425
18.063789358160317
18.063818065759065
18.06382771896498
18.15332046197243
18.153328086733463
18.153350811106023
18.15338819589058
18.153439542237177
18.153503935865754
18.153580301931413
18.15366746061097
18.15376418178724
18.1538692285779
18.153981392484756
18.154099513743773
18.15422248890252
18.154349268784852
18.154478845880536
18.154610233971276
18.15474244427711
18.154874458662917
18.15500520321319
18.155133524770037
18.15525817305428
18.155377792255255
18.155490922417776
18.155596017433698
18.155691476872796
18.15577569508775
18.155847124534642
18.155904349088317
18.155946161727208
18.155971637922868
18.155980196153518
18.239001733706925
18.2390086422455
18.23902924609419
18.23906318738693
18.23910989307378
18.23916860626212
18.23923842588278
18.23931834720181
18.239407303032223
18.239504197165346
18.23960793296542
18.239717431180523
18.239831638454916
18.239949528958043
18.240070097701427
18.240192347676036
18.24031527443193
18.240437848324937
18.2405589972653
18.240677592107446
18.240792436739966
18.24090226595144
18.24100575071544
18.24110151639213
18.241188170560346
18.241264343095093
18.24132873556617
18.241380176590894
18.24141767916269
18.24144049381376
18.241448151867832
18.317938930752824
18.317945239123517
18.31796406311842
18.317995104731285
18.318037884074208
18.318091761922393
18.318155968824517
18.31822963495588
18.318311821509894
18.318401546506767
18.318497808106304
18.31859960001349
18.318705920182225
18.3188157747708
18.31892817566705
18.319042133210097
18.319156647169557
18.319270695908834
18.31938322610289
18.31949314470634
18.319599314736486
18.31970055729603
18.31979565902308
18.31988338954076
18.319962525439923
18.320031882958354
18.320090356722847
18.320136961925996
18.32017087715756
18.32019148347542
18.32019839581919
18.39010446819046
18.39011027108417
18.39012759399018
18.390156183497048
18.39019562950803
18.390245381705
18.390304771256336
18.390373033093027
18.39044933013873
18.39053277341419
18.39062244119508
18.390717392325357
18.390816674750546
18.39091933093109
18.39102439833407
18.391130906256166
18.391237871576823
18.391344293114297
18.39144914653779
18.391551381141138
18.391649919630446
18.39174366284238
18.391831498290898
18.391912316452057
18.39198503132907
18.39204860720785
18.39210208929656
18.392144636218923
18.392175552445075
18.392194317436
18.39220060882619
18.45547305356075
18.45547842982696
18.4554944843732
18.4555209973638
18.45555761151308
18.455603844304214
18.45565910446349
18.455722708824815
18.45579390133267
18.455871868903117
18.45595575736348
18.456044683030875
18.45613774092143
18.45623401105917
18.45633256104179
18.456432445841127
18.45653270706362
18.45663237114057
18.456730448047583
18.4568259315327
18.45691780167673
18.457005031312395
18.457086595024478
18.45716148415966
18.457228724490776
18.45728739830058
18.45733666888416
18.457375805909827
18.457404210338893
18.457421436511304
18.457427209539276
18.514022065092327
18.51402708169846
18.514042065994847
18.514066823641524
18.514101037639236
18.514144277560746
18.514196012301195
18.514255623063786
18.51432241854435
18.51439564764932
18.514474512970068
18.514558180964237
18.514645789798223
18.514736456188153
18.51482927940188
18.514923343196326
18.51501771761788
18.515111459980883
18.515203616334453
18.515293224135434
18.515379316695164
18.515460930631615
18.51553711495024
18.515606944825983
18.515669536875095
18.51572406759212
18.51576979321691
18.51580606983078
18.515832372823127
18.515848313917907
18.51585365445739
18.565730814136245
18.565735529059516
18.565749614960986
18.565772896971012
18.565805088983627
18.56584580077456
18.565894548089336
18.565950762843325
18.566013805516665
18.566082975554014
18.56615752296556
18.56623665740613
18.566319555663362
18.56640536879821
18.566493227129502
18.566582243686767
18.566671517823703
18.566760138194944
18.566847186175114
18.56693174023426
18.567012881643336
18.56708970251865
18.567161314780936
18.567226862832616
18.56728553689657
18.567336588630265
18.567379347500882
18.567413236992138
18.567437790097078
18.5674526626984
18.567457643913656
18.61058151643123
18.610585980799833
18.610599320116936
18.610621374404268
18.610651881272023
18.61069048153759
18.610736727407605
18.610790090677465
18.610849973092353
18.610915715045135
18.61098660576596
18.611061891545653
18.611140782907775
18.611222461902525
18.611306087753558
18.611390801371364
18.611475730242336
18.611559992815724
18.611642703288393
18.611722977145586
18.611799937686726
18.6118727243796
18.61194050160114
18.612002470364768
18.612057880123583
18.612106042218585
18.612146343634823
18.612178260338407
18.612201369871
18.61221536209556
18.612220047432437
18.64855837256232
18.648562632280385
18.648575361506136
18.648596411596063
18.64862553827141
18.648662406175315
18.648706595693486
18.648757609723425
18.648814882560295
18.648877787355882
18.648945645255786
18.649017732969586
18.64909328967507
18.64917152437694
18.649251621991993
18.649332748593416
18.64941405718201
18.649494693052315
18.649573799516
18.64965052422501
18.64972402621726
18.649793484406352
18.64985810607399
18.64991713780976
18.649969876116756
18.650015679217503
18.65005397886148
18.65008429155659
18.65010622905737
18.65011950721107
18.650123952682023
18.679648305221665
18.679652402223017
18.67966464618965
18.679684896978348
18.679712923930403
18.67974840968406
18.679790956033003
18.679840089684213
18.679895270087997
18.679955896007808
18.680021313886474
18.6800908249282
18.68016369178661
18.6802391459376
18.68031639404813
18.68039462371446
18.68047300983091
18.680550720621728
18.680626923996158
18.68070079438451
18.680771520102503
18.680838311876755
18.68090041109918
18.680957100138286
18.681007712033384
18.681051641078845
18.68108835320426
18.68111739568183
18.6811384061015
18.681151119861763
18.6811553758203
18.70384058051471
18.70384455376046
18.703856428556954
18.703876070932562
18.703903260139853
18.703937691958078
18.703978983888483
18.70402668021526
18.704080259100408
18.70413913853354
18.70420268415085
18.704270215965487
18.704341014889742
18.704414330097887
18.70448938557253
18.704565386166568
18.704641524364785
18.704716986754637
18.704790960793357
18.704862641969996
18.704931241356814
18.7049959941208
18.705056167575606
18.70511107101532
18.70516006474195
18.705202569770872
18.70523807719778
18.705266156833677
18.70528646512251
18.705298751689494
18.70530286424805
18.721126714668323
18.721130600964486
18.721142216334087
18.721161430994282
18.72118803093626
18.721221720897734
18.721262129126394
18.721308811987917
18.721361260578313
18.721418906267065
18.72148112815175
18.721547259551635
18.72161659441312
18.72168839465498
18.721761896820052
18.721836318337946
18.721910864530763
18.721984735357207
18.72205713243427
18.72212726639493
18.72219436454315
18.722257679335144
18.72231649627833
18.72237014343131
18.722417999976855
18.722459505336374
18.722494167861903
18.72252157276187
18.722541389322608
18.722553376838746
18.722557389033962
18.731500807269086
18.73150464195946
18.73151610333598
18.731535064045662
18.73156131399326
18.731594563128496
18.7316344459665
18.73168052594061
18.731732301741896
18.731789212631675
18.73185064568797
18.731915942162605
18.731984403817243
18.732055300254345
18.732127875623636
18.73220135499389
18.73227495149074
18.732347873189795
18.732419330275313
18.73248854250165
18.732554746898593
18.732617206227086
18.732675216783594
18.732728117702536
18.732775299265402
18.73281621167462
18.732850373359376
18.7328773784975
18.732896903841663
18.732908714299953
18.732912667081855
18.734959225864507
18.734963043445568
18.734974453764302
18.73499333026416
18.73501946413345
18.7350525670329
18.73509227553745
18.735138155407036
18.73518970783742
18.73524637469842
18.735307545712434
18.73537256476691
18.735440736227563
18.735511332263798
18.735583599572212
18.735656765782732
18.735730046638285
18.735802652934975
18.73587379772408
18.73594270380557
18.736008611448675
18.73607078683754
18.736128529843956
18.736181183264236
18.73622814104176
18.73626885692981
18.736302852671646
18.73632972539109
18.736349154290817
18.736360906119515
18.73636483922911
