# vtk DataFile Version 2.0
Unstructured Grid Example
ASCII
DATASET UNSTRUCTURED_GRID

POINTS 961 float
0.400000004 0.01999999956 0
0.3866666556 0.01999999956 0
0.3733333348 0.01999999956 0
0.3600000144 0.01999999956 0
0.346666664 0.01999999956 0
0.3333333432 0.01999999956 0
0.3199999928 0.01999999956 0
0.3066666724 0.01999999956 0
0.293333322 0.01999999956 0
0.2800000012 0.01999999956 0
0.2666666804 0.01999999956 0
0.25333333 0.01999999956 0
0.2399999948 0.01999999956 0
0.226666674 0.01999999956 0
0.2133333384 0.01999999956 0
0.2000000028 0.01999999956 0
0.1866666676 0.01999999956 0
0.173333332 0.01999999956 0
0.1599999964 0.01999999956 0
0.1466666608 0.01999999956 0
0.1333333404 0.01999999956 0
0.1199999972 0.01999999956 0
0.1066666692 0.01999999956 0
0.0933333336 0.01999999956 0
0.0799999984 0.01999999956 0
0.06666667 0.01999999956 0
0.0533333348 0.01999999956 0
0.03999999912 0.01999999956 0
0.02666666732 0.01999999956 0
0.01333333364 0.01999999956 0
0.0 0.01999999956 0
0.400000004 0.00666666684 0
0.3866666556 0.00666666684 0
0.3733333348 0.00666666684 0
0.3600000144 0.00666666684 0
0.346666664 0.00666666684 0
0.3333333432 0.00666666684 0
0.3199999928 0.00666666684 0
0.3066666724 0.00666666684 0
0.293333322 0.00666666684 0
0.2800000012 0.00666666684 0
0.2666666804 0.00666666684 0
0.25333333 0.00666666684 0
0.2399999948 0.00666666684 0
0.226666674 0.00666666684 0
0.2133333384 0.00666666684 0
0.2000000028 0.00666666684 0
0.1866666676 0.00666666684 0
0.173333332 0.00666666684 0
0.1599999964 0.00666666684 0
0.1466666608 0.00666666684 0
0.1333333404 0.00666666684 0
0.1199999972 0.00666666684 0
0.1066666692 0.00666666684 0
0.0933333336 0.00666666684 0
0.0799999984 0.00666666684 0
0.06666667 0.00666666684 0
0.0533333348 0.00666666684 0
0.03999999912 0.00666666684 0
0.02666666732 0.00666666684 0
0.01333333364 0.00666666684 0
0.0 0.00666666684 0
0.400000004 -0.00666666684 0
0.3866666556 -0.00666666684 0
0.3733333348 -0.00666666684 0
0.3600000144 -0.00666666684 0
0.346666664 -0.00666666684 0
0.3333333432 -0.00666666684 0
0.3199999928 -0.00666666684 0
0.3066666724 -0.00666666684 0
0.293333322 -0.00666666684 0
0.2800000012 -0.00666666684 0
0.2666666804 -0.00666666684 0
0.25333333 -0.00666666684 0
0.2399999948 -0.00666666684 0
0.226666674 -0.00666666684 0
0.2133333384 -0.00666666684 0
0.2000000028 -0.00666666684 0
0.1866666676 -0.00666666684 0
0.173333332 -0.00666666684 0
0.1599999964 -0.00666666684 0
0.1466666608 -0.00666666684 0
0.1333333404 -0.00666666684 0
0.1199999972 -0.00666666684 0
0.1066666692 -0.00666666684 0
0.0933333336 -0.00666666684 0
0.0799999984 -0.00666666684 0
0.06666667 -0.00666666684 0
0.0533333348 -0.00666666684 0
0.03999999912 -0.00666666684 0
0.02666666732 -0.00666666684 0
0.01333333364 -0.00666666684 0
0.0 -0.00666666684 0
0.400000004 -0.01999999956 0
0.3866666556 -0.01999999956 0
0.3733333348 -0.01999999956 0
0.3600000144 -0.01999999956 0
0.346666664 -0.01999999956 0
0.3333333432 -0.01999999956 0
0.3199999928 -0.01999999956 0
0.3066666724 -0.01999999956 0
0.293333322 -0.01999999956 0
0.2800000012 -0.01999999956 0
0.2666666804 -0.01999999956 0
0.25333333 -0.01999999956 0
0.2399999948 -0.01999999956 0
0.226666674 -0.01999999956 0
0.2133333384 -0.01999999956 0
0.2000000028 -0.01999999956 0
0.1866666676 -0.01999999956 0
0.173333332 -0.01999999956 0
0.1599999964 -0.01999999956 0
0.1466666608 -0.01999999956 0
0.1333333404 -0.01999999956 0
0.1199999972 -0.01999999956 0
0.1066666692 -0.01999999956 0
0.0933333336 -0.01999999956 0
0.0799999984 -0.01999999956 0
0.06666667 -0.01999999956 0
0.0533333348 -0.01999999956 0
0.03999999912 -0.01999999956 0
0.02666666732 -0.01999999956 0
0.01333333364 -0.01999999956 0
0.0 -0.01999999956 0
0.400000004 -0.03333333508 0
0.3866666556 -0.03333333508 0
0.3733333348 -0.03333333508 0
0.3600000144 -0.03333333508 0
0.346666664 -0.03333333508 0
0.3333333432 -0.03333333508 0
0.3199999928 -0.03333333508 0
0.3066666724 -0.03333333508 0
0.293333322 -0.03333333508 0
0.2800000012 -0.03333333508 0
0.2666666804 -0.03333333508 0
0.25333333 -0.03333333508 0
0.2399999948 -0.03333333508 0
0.226666674 -0.03333333508 0
0.2133333384 -0.03333333508 0
0.2000000028 -0.03333333508 0
0.1866666676 -0.03333333508 0
0.173333332 -0.03333333508 0
0.1599999964 -0.03333333508 0
0.1466666608 -0.03333333508 0
0.1333333404 -0.03333333508 0
0.1199999972 -0.03333333508 0
0.1066666692 -0.03333333508 0
0.0933333336 -0.03333333508 0
0.0799999984 -0.03333333508 0
0.06666667 -0.03333333508 0
0.0533333348 -0.03333333508 0
0.03999999912 -0.03333333508 0
0.02666666732 -0.03333333508 0
0.01333333364 -0.03333333508 0
0.0 -0.03333333508 0
0.400000004 -0.0466666668 0
0.3866666556 -0.0466666668 0
0.3733333348 -0.0466666668 0
0.3600000144 -0.0466666668 0
0.346666664 -0.0466666668 0
0.3333333432 -0.0466666668 0
0.3199999928 -0.0466666668 0
0.3066666724 -0.0466666668 0
0.293333322 -0.0466666668 0
0.2800000012 -0.0466666668 0
0.2666666804 -0.0466666668 0
0.25333333 -0.0466666668 0
0.2399999948 -0.0466666668 0
0.226666674 -0.0466666668 0
0.2133333384 -0.0466666668 0
0.2000000028 -0.0466666668 0
0.1866666676 -0.0466666668 0
0.173333332 -0.0466666668 0
0.1599999964 -0.0466666668 0
0.1466666608 -0.0466666668 0
0.1333333404 -0.0466666668 0
0.1199999972 -0.0466666668 0
0.1066666692 -0.0466666668 0
0.0933333336 -0.0466666668 0
0.0799999984 -0.0466666668 0
0.06666667 -0.0466666668 0
0.0533333348 -0.0466666668 0
0.03999999912 -0.0466666668 0
0.02666666732 -0.0466666668 0
0.01333333364 -0.0466666668 0
0.0 -0.0466666668 0
0.400000004 -0.0599999988 0
0.3866666556 -0.0599999988 0
0.3733333348 -0.0599999988 0
0.3600000144 -0.0599999988 0
0.346666664 -0.0599999988 0
0.3333333432 -0.0599999988 0
0.3199999928 -0.0599999988 0
0.3066666724 -0.0599999988 0
0.293333322 -0.0599999988 0
0.2800000012 -0.0599999988 0
0.2666666804 -0.0599999988 0
0.25333333 -0.0599999988 0
0.2399999948 -0.0599999988 0
0.226666674 -0.0599999988 0
0.2133333384 -0.0599999988 0
0.2000000028 -0.0599999988 0
0.1866666676 -0.0599999988 0
0.173333332 -0.0599999988 0
0.1599999964 -0.0599999988 0
0.1466666608 -0.0599999988 0
0.1333333404 -0.0599999988 0
0.1199999972 -0.0599999988 0
0.1066666692 -0.0599999988 0
0.0933333336 -0.0599999988 0
0.0799999984 -0.0599999988 0
0.06666667 -0.0599999988 0
0.0533333348 -0.0599999988 0
0.03999999912 -0.0599999988 0
0.02666666732 -0.0599999988 0
0.01333333364 -0.0599999988 0
0.0 -0.0599999988 0
0.400000004 -0.0733333304 0
0.3866666556 -0.0733333304 0
0.3733333348 -0.0733333304 0
0.3600000144 -0.0733333304 0
0.346666664 -0.0733333304 0
0.3333333432 -0.0733333304 0
0.3199999928 -0.0733333304 0
0.3066666724 -0.0733333304 0
0.293333322 -0.0733333304 0
0.2800000012 -0.0733333304 0
0.2666666804 -0.0733333304 0
0.25333333 -0.0733333304 0
0.2399999948 -0.0733333304 0
0.226666674 -0.0733333304 0
0.2133333384 -0.0733333304 0
0.2000000028 -0.0733333304 0
0.1866666676 -0.0733333304 0
0.173333332 -0.0733333304 0
0.1599999964 -0.0733333304 0
0.1466666608 -0.0733333304 0
0.1333333404 -0.0733333304 0
0.1199999972 -0.0733333304 0
0.1066666692 -0.0733333304 0
0.0933333336 -0.0733333304 0
0.0799999984 -0.0733333304 0
0.06666667 -0.0733333304 0
0.0533333348 -0.0733333304 0
0.03999999912 -0.0733333304 0
0.02666666732 -0.0733333304 0
0.01333333364 -0.0733333304 0
0.0 -0.0733333304 0
0.400000004 -0.086666666 0
0.3866666556 -0.086666666 0
0.3733333348 -0.086666666 0
0.3600000144 -0.086666666 0
0.346666664 -0.086666666 0
0.3333333432 -0.086666666 0
0.3199999928 -0.086666666 0
0.3066666724 -0.086666666 0
0.293333322 -0.086666666 0
0.2800000012 -0.086666666 0
0.2666666804 -0.086666666 0
0.25333333 -0.086666666 0
0.2399999948 -0.086666666 0
0.226666674 -0.086666666 0
0.2133333384 -0.086666666 0
0.2000000028 -0.086666666 0
0.1866666676 -0.086666666 0
0.173333332 -0.086666666 0
0.1599999964 -0.086666666 0
0.1466666608 -0.086666666 0
0.1333333404 -0.086666666 0
0.1199999972 -0.086666666 0
0.1066666692 -0.086666666 0
0.0933333336 -0.086666666 0
0.0799999984 -0.086666666 0
0.06666667 -0.086666666 0
0.0533333348 -0.086666666 0
0.03999999912 -0.086666666 0
0.02666666732 -0.086666666 0
0.01333333364 -0.086666666 0
0.0 -0.086666666 0
0.400000004 -0.1000000016 0
0.3866666556 -0.1000000016 0
0.3733333348 -0.1000000016 0
0.3600000144 -0.1000000016 0
0.346666664 -0.1000000016 0
0.3333333432 -0.1000000016 0
0.3199999928 -0.1000000016 0
0.3066666724 -0.1000000016 0
0.293333322 -0.1000000016 0
0.2800000012 -0.1000000016 0
0.2666666804 -0.1000000016 0
0.25333333 -0.1000000016 0
0.2399999948 -0.1000000016 0
0.226666674 -0.1000000016 0
0.2133333384 -0.1000000016 0
0.2000000028 -0.1000000016 0
0.1866666676 -0.1000000016 0
0.173333332 -0.1000000016 0
0.1599999964 -0.1000000016 0
0.1466666608 -0.1000000016 0
0.1333333404 -0.1000000016 0
0.1199999972 -0.1000000016 0
0.1066666692 -0.1000000016 0
0.0933333336 -0.1000000016 0
0.0799999984 -0.1000000016 0
0.06666667 -0.1000000016 0
0.0533333348 -0.1000000016 0
0.03999999912 -0.1000000016 0
0.02666666732 -0.1000000016 0
0.01333333364 -0.1000000016 0
0.0 -0.1000000016 0
0.400000004 -0.1133333372 0
0.3866666556 -0.1133333372 0
0.3733333348 -0.1133333372 0
0.3600000144 -0.1133333372 0
0.346666664 -0.1133333372 0
0.3333333432 -0.1133333372 0
0.3199999928 -0.1133333372 0
0.3066666724 -0.1133333372 0
0.293333322 -0.1133333372 0
0.2800000012 -0.1133333372 0
0.2666666804 -0.1133333372 0
0.25333333 -0.1133333372 0
0.2399999948 -0.1133333372 0
0.226666674 -0.1133333372 0
0.2133333384 -0.1133333372 0
0.2000000028 -0.1133333372 0
0.1866666676 -0.1133333372 0
0.173333332 -0.1133333372 0
0.1599999964 -0.1133333372 0
0.1466666608 -0.1133333372 0
0.1333333404 -0.1133333372 0
0.1199999972 -0.1133333372 0
0.1066666692 -0.1133333372 0
0.0933333336 -0.1133333372 0
0.0799999984 -0.1133333372 0
0.06666667 -0.1133333372 0
0.0533333348 -0.1133333372 0
0.03999999912 -0.1133333372 0
0.02666666732 -0.1133333372 0
0.01333333364 -0.1133333372 0
0.0 -0.1133333372 0
0.400000004 -0.1266666652 0
0.3866666556 -0.1266666652 0
0.3733333348 -0.1266666652 0
[...]
POINT_DATA 961
SCALARS Temp float 1
LOOKUP_TABLE default
0.7582830365675844
0.7885705507602824
0.8103090438187623
0.8261180358358877
0.8377042115069643
0.8462379079330273
0.8525523572800013
0.8572473128261235
0.8607593228118039
0.8634082730250084
0.8654313521858308
0.8670066035435852
0.8682701085914253
0.8693293613179269
0.8702732473932835
0.8711799606692937
0.8721242529507436
0.8731840984581348
0.8744476953017168
0.8760214752577284
0.8780398582777663
0.8806780947056561
0.8841686343501554
0.8888243844721773
0.8950699328039349
0.9034858584745828
0.9148718618114711
0.9303391223850525
0.9514509855831118
0.9804762599409076
1.02101420387044
0.8003324361870275
0.8300312955392197
0.851536349482795
0.8672588254438786
0.878805238240889
0.8873226194647748
0.8936321672141389
0.8983279066173055
0.9018433922421505
0.9044969516906791
0.906524973197901
0.908105122947896
0.9093733484203472
0.9104371398130514
0.9113854513751806
0.9122965881288316
0.9132454285642713
0.9143100728804828
0.9155788252905444
0.917158175659895
0.9191825094407903
0.921826864590266
0.9253231716883047
0.9299832520769449
0.9362295922171061
0.9446387697211671
0.9560027974078381
0.9714169666886523
0.9924115408374329
1.0211409530121773
1.0607254518090614
2.7690262904024614
2.7734396142272377
2.78573972822214
2.7970863948166618
2.8064716558839584
2.813941439533581
2.81979274471029
2.8243462926338134
2.8278866024384897
2.83064983593697
2.8328270725214475
2.834571957188453
2.8360089922943064
2.837241294187975
2.838357496758089
2.83943792460547
2.8405603346418973
2.841805547119506
2.8432632702384337
2.8450384800976787
2.8472587119818296
2.8500825041211018
2.853709138646547
2.85838929606642
2.8644349559711255
2.8722234575056826
2.8821810949087667
2.894702690066652
2.9098484092186605
2.9262622115163657
2.932154929365626
4.713154185122168
4.715563089090773
4.721476016612092
4.728865594681449
4.735874021683823
4.74195253650824
4.747011769316671
4.751136471874909
4.754466986360614
4.757151263337627
4.7593265637483535
4.761113987077525
4.762618697819448
4.763932604534084
4.765137992153139
4.7663115061061045
4.767528277938827
4.768866131157441
4.770409900873558
4.772255878397365
4.774516285604566
4.7773234666430815
4.78083287681531
4.785222997178579
4.790687712115751
4.79741152853941
4.805505373755621
4.814847962439974
4.824704150779826
4.832593002465867
4.835806840053968
6.651512189113564
6.652794701249486
6.656261081260317
6.660955343265583
6.665955880346802
6.670656516002614
6.674807628930051
6.67835013349441
6.681317800022088
6.683784322396309
6.68583661460639
6.68756210592057
6.689043551635114
6.690357837153956
6.691576848162228
6.692769423612351
6.69400386722904
6.695350693405006
6.696885398212002
6.698691010334726
6.700860025089
6.7034950170925
6.706706531749985
6.710605810608502
6.71528753175921
6.72079383859319
6.727043542219614
6.73370136079923
6.739956504275309
6.74457743514724
6.746287435688687
8.586372697829038
8.58715429472589
8.589317189008286
8.5924145459421
8.595929177481201
8.599448459193777
8.60272034450924
8.605631005043112
8.608154001585195
8.61031191834595
8.61215205869329
8.613732322295743
8.615113708575826
8.616356903853962
8.617521272869912
8.618665249510821
8.619847495300252
8.621128369101879
8.622571356925558
8.624244070756227
8.626218273693224
8.628568105999868
8.631365106972499
8.63466791720965
8.638503166499655
8.642832754352478
8.6475025232427
8.652174200730396
8.656295580959961
8.659175257468226
8.660216146594488
10.518862925631044
10.51936116260657
10.52076600217689
10.522843306745688
10.525300365993905
10.5278697913693
10.530357605268035
10.532650027689082
10.534697819675397
10.536495209002723
10.538062762120946
10.539435522350487
10.540655646140014
10.541768305117039
10.542819744402964
10.543856702480776
10.544926614692356
10.546078131585972
10.547361561336825
10.548828808719433
10.55053226458905
10.55252190370662
10.554839487649557
10.557508508378131
10.560518145177113
10.563800181128938
10.567200790632322
10.570459474264904
10.573218130967414
10.575085179552255
10.575747572238253
12.449476959007086
12.449798333284573
12.450714558036307
12.452097826359578
12.453779311862748
12.455592148597292
12.45740165944966
12.459117158117051
12.460689463823961
12.46210166343774
12.463359003339257
12.464480574214504
12.465493437592638
12.466428923576975
12.467320541643138
12.46820299150023
12.469111835750049
12.470083437682266
12.47115481470853
12.47236302899475
12.473743662068092
12.475327819829506
12.477136956444598
12.479174871563965
12.481416455661146
12.483794034259407
12.486184976503663
12.488408254123463
12.490240194218195
12.491454770742028
12.491880984476246
14.378457916480302
14.378656790300504
14.379227973628819
14.380102366064612
14.381185534196069
14.382379308835791
14.38359907356137
14.38478284153333
14.385892702664979
14.386911424455722
14.38783730815391
14.388679207249044
14.389452602148989
14.390176886931982
14.39087367038195
14.391565820135835
14.392276972370807
14.393031227221107
14.393852773417235
14.394765166134409
14.395789944733696
14.396944245499293
14.398237031186174
14.39966374951985
14.401199582253556
14.40279247049778
14.404358538197881
14.405783939782772
14.406936972507733
14.407691111271083
14.407953839530967
16.305922173414604
16.306026850879284
16.306329224223347
16.3067972798534
16.30738631261796
16.30804833853112
16.30874019374542
16.309428443990715
16.310090946921754
16.310715948932852
16.311300003786236
16.31184565543942
16.312359443352566
16.31285042054624
16.313329149457513
16.313807070303078
16.314296111570787
16.314808395476575
16.315355900873882
16.31594993586342
16.31660025964486
16.31731369384903
16.318092073128337
16.318929537018803
16.319809387347835
16.320701254133006
16.321559872380593
16.3223271224826
16.322938582189444
16.323334313710458
16.323471428643582
18.23192363743312
18.231946916644905
18.232015403755348
18.23212529265501
18.23227097855671
18.2324459280891
18.23264353911703
18.232857806725434
18.23308373123292
18.233317468270847
18.23355630083321
18.23379849762261
18.23404312497724
18.234289855615298
18.2345387874836
18.234790278847747
18.235044798876316
18.235302780824682
18.23556446804253
18.23582974141861
18.23609791901045
18.23636752703581
18.236636045086836
18.2368996623776
18.237153089337006
18.237389515778208
18.23760081551093
18.237778084470104
18.237912533237186
18.237996630847718
18.238025267455285
18.33937810347194
18.339397597961117
18.33945516079808
18.339548173313503
18.339672707861606
18.339824059999504
18.33999730396287
18.340187758521466
18.340391314382913
18.340604600430897
18.340825025744728
18.341050725609417
18.34128045419792
18.341513456440577
18.341749331342058
18.341987896063422
18.34222905518609
18.342472668438727
18.34271841324954
18.342965637238308
18.34321319813192
18.34345929638922
18.343701307796557
18.343935649820093
18.34415771255922
18.344361912795385
18.344541921242925
18.344691095019332
18.34480310334375
18.344872666139203
18.34489626575428
18.44671496344997
18.4467316458923
18.44678104440626
18.446861299580227
18.44696958053782
18.44710242030412
18.44725608132669
18.44742688033556
18.447611439474912
18.447806836909354
18.44801067421516
18.448221069140143
18.448436599599475
18.44865622160456
18.44887916998787
18.449104851322865
18.449332735813037
18.449562245309057
18.449792637916506
18.45002288859742
18.450251567174533
18.450476721504053
18.45069577327586
18.450905454129554
18.451101800562714
18.451280243660523
18.451435816242437
18.45156348507241
18.45165858865224
18.451717323157993
18.45173719161744
18.553939537438584
18.553954087561408
18.553997266357285
18.554067713857098
18.554163333434776
18.55428150879183
18.554419348949803
18.55457391560866
18.554742411916887
18.554922308017176
18.55511141218302
18.555307886217324
18.55551022046979
18.5557171838025
18.555927753842575
18.556141035698918
18.55635617656235
18.556572275473474
18.5567882910912
18.557002949312693
18.55721465403737
18.557421409201375
18.557620757992677
18.557809760817687
18.557985021313364
18.558142782309176
18.55827909999123
18.558390094057774
18.55847225559731
18.558522772866915
18.558539822616787
18.661055771342564
18.661068679702037
18.661107051725395
18.661169863743666
18.661255520468135
18.661361998706322
18.661487014536224
18.661628183550896
18.66178316168315
18.6619497456589
18.662125938534146
18.662309974394947
18.662500311349795
18.66269560312169
18.66289465173028
18.663096347889017
18.663299606274755
18.663503295902863
18.663706169546895
18.663906795180466
18.664103493318912
18.664294287707094
18.66447687329386
18.664648618028554
18.66480660164911
18.66494770492582
18.66506875054583
18.665166690139152
18.665238822717484
18.66528301714788
18.66529790581498
18.768066593600327
18.768078225215753
18.768112847889736
18.76816966874376
18.76824744038945
18.768344558148577
18.76845917613598
18.768589321228447
18.768732998115293
18.768888268034424
18.76905330556021
18.769226425696832
18.769406086856545
18.76959087679038
18.769779481914014
18.769970645206772
18.770163119181237
18.77035561439403
18.77054674772648
18.770734993698326
18.770918642551617
18.771095771481523
18.771264231154067
18.771421660264544
18.771565527498854
18.771693209485896
18.771802102706936
18.77188976337449
18.771954064163992
18.771993348919253
18.77200656435322
18.871401936037774
18.871412549000187
18.871444172056425
18.87149617383966
18.87156755270535
18.87165700377315
18.871763000912527
18.87188387862805
18.87201791078756
18.872163371766717
18.872318584214177
18.872481945242964
18.872651934663995
18.872827110305025
18.87300608949156
18.873187520671244
18.873370050899744
18.873552289519377
18.873732772078768
18.873909927570498
18.874082052238506
18.87424729521742
18.874403656707923
18.87454900872667
18.874681135569475
18.874797799824954
18.87489683064518
18.874976228871205
18.875034280910526
18.875069668228804
18.875081558822824
18.967473363228603
18.96748313448163
18.967512272508586
18.96756026136012
18.96762627644513
18.96770923158625
18.967807837891556
18.967920663233215
18.968046191714077
18.96818287105013
18.968329152224314
18.968483513417517
18.968644470774237
18.968810579799385
18.96898042560654
18.969152605065393
18.969325705804838
18.969498282101327
18.969668831290225
18.96983577336686
18.969997436431203
18.970152052230695
18.970297761450507
18.97043263687287
18.97055472034314
18.970662077850665
18.970752869128333
18.970825427264522
18.970878342548858
18.970910541294256
18.970921350630395
19.05626603904151
19.056275103735047
19.056302151111456
19.056346749069405
19.056408202569042
19.05648558722572
19.056577792305767
19.056683564452584
19.056801553096182
19.05693034729699
19.05706850859078
19.057214592305215
19.057367159351056
19.057524781518286
19.05768603799221
19.057849505430735
19.05801374587865
19.058177292206697
19.05833863422275
19.058496207643252
19.058648387989848
19.058793492821955
19.05892979121964
19.059055527291058
19.0591689530673
19.05926837425116
19.0593522053534
19.059419030600363
19.059467666559893
19.059497219862642
19.059507133980826
19.13777927359492
19.137787737456758
19.137813003691093
19.137854702071017
19.137912233775452
19.13798479578356
19.1380714128379
19.138170970025175
19.13828224792936
19.13840395151037
19.138534737447863
19.1386732329628
19.138818047834544
19.138967782169534
19.139121027360773
19.13927636205243
19.139432346806508
19.139587516839708
19.139740375493876
19.13988939016425
19.140032992230154
19.140169583720805
19.14029754914103
19.140415278278653
19.140521195147507
19.140613796070625
19.140691693734492
19.140753664369058
19.14079869525577
19.14082602774436
19.14083519167276
19.212025109058494
19.21203305708546
19.21205679176127
19.212095989199543
19.21215012306913
19.212218482623474
19.212300196918246
19.21239425946021
19.21249955586836
19.212614886781118
19.212738990857076
19.21287056141076
19.213008258257464
19.213150717021243
19.213296553214633
19.21344436251456
19.213592720452105
19.213740180614458
19.213885273587202
19.21402650795188
19.21416237445087
19.21429135552134
19.21441193831334
19.214522636327516
19.21462201482496
19.214708722754402
19.21478152836553
19.214839356288575
19.21488132418651
19.214906775405993
19.214915304799515
19.279026485811503
19.279033988462235
19.279056399083327
19.279093428970477
19.279144607129624
19.27920929385701
19.27928669947071
19.27937590328505
19.279475875789526
19.279585497101884
19.279703576588744
19.279828867673615
19.27996007933248
19.280095886331253
19.280234935471494
19.280375848980533
19.280517227874213
19.280657654177112
19.280795693858533
19.280929901457363
19.281058827162965
19.28118102814533
19.28129508206401
19.281399607388515
19.281493285787903
19.28157488918311
19.281643308950045
19.281697585544944
19.281736937304167
19.28176078571383
19.281768775177543
19.338815457650764
19.33882257529727
19.338843840156933
19.338878990548732
19.33892759820029
19.338989078690656
19.339062706268148
19.339147628748037
19.33924288567227
19.339347423451763
19.33946011238044
19.339579759957086
19.33970512197342
19.33983491328402
19.339967815533488
19.340102482764365
19.340237547420006
19.340371625468027
19.34050332219867
19.340631239397286
19.340753984390215
19.340870182446544
19.34097849036489
19.341077615499415
19.34116633563859
19.3412435222322
19.34130816473477
19.341359394712995
19.341396508930472
19.34141898931574
19.34142651842361
19.391429994755896
19.391436780901554
19.391457058408946
19.39149058653094
19.39153697024519
19.391595668471755
19.391666006083476
19.39174718586674
19.39183830373105
19.391938361397834
19.392046281418025
19.39216091930743
19.39228107423105
19.39240550004958
19.39253291404112
19.392662004063585
19.392791436422097
19.392919863053358
19.393045929337617
19.393168283024536
19.39328558456878
19.39339652012342
19.3934998149748
19.393594251383714
19.393678686416642
19.39375207219286
19.393813476549386
19.393862103056133
19.393897309922192
19.39391862613156
19.393925763817027
19.43691236880295
19.436918872392827
19.436938307780704
19.436970450495433
19.437014931475982
19.43707124370531
19.437138752201925
19.437216703863406
19.43730424051248
19.437400409774384
19.43750417857585
19.437614444346956
19.437730045336064
19.43784977177231
19.43797237523899
19.43809657690644
19.438221076691413
19.438344561876793
19.43846571631264
19.438583230521274
19.438695812852096
19.438802202757916
19.438901183965534
19.438991601280712
19.43907237677704
19.439142527739236
19.439201184552935
19.43924760768623
19.4392812035351
19.439301537779745
19.439308345534826
19.47530556015448
19.47531182722407
19.47533055734078
19.475361538641227
19.4754044222494
19.47545872778491
19.475523851905358
19.475599076629102
19.4756835808018
19.475776449646425
19.475876687117545
19.47598322638047
19.476094939805353
19.47621065015018
19.47632914034848
19.476449162464096
19.476569447726508
19.47668871613006
19.476805686571527
19.476919087728135
19.477027669711106
19.47713021743617
19.477225563492368
19.4773126040744
19.477390313877052
19.47745776227731
19.477514129145693
19.477558719589705
19.477590977563857
19.477610497213075
19.47761703142228
19.506651415218165
19.50665749003702
19.50667564666984
19.506705682873815
19.506747265224003
19.506799933828752
19.50686310984194
19.506936102705396
19.507018120476538
19.507108278419114
19.50720561050968
19.50730907936847
19.50741758598867
19.507529980888556
19.50764507415273
19.50776164486188
19.507878451706738
19.50799424323903
19.508107768624406
19.508217789011244
19.5083230894717
19.50842249236156
19.508514869897553
19.508599159383042
19.508674377107155
19.50873963320557
19.50879414593885
19.50883725480635
19.50886843254187
19.50888729501382
19.508893608632963
19.530987847481676
19.530993773322596
19.531011485429527
19.531040788656313
19.531081361004585
19.531132757793873
19.531194418460018
19.53126567304944
19.53134575174815
19.531433792798943
19.531528853399546
19.531629919233172
19.531735913990467
19.531845710471295
19.531958140773558
19.532072006024762
19.53218608736552
19.532299156619736
19.53240998743782
19.53251736696511
19.532620107937454
19.53271706198304
19.532807131949518
19.53288928658597
19.532962573706854
19.53302613409477
19.533079214683195
19.53312118051727
19.533151525615065
19.533169881859386
19.533176025610956
19.548346611206718
19.54835243083412
19.548369825954858
19.548398606303085
19.548438457753377
19.548488946136644
19.548549523571406
19.54861953446966
19.548698224538484
19.548784748252707
19.54887817934427
19.548977520060028
19.549081710535578
19.54918963984736
19.549300156282257
19.549412077250146
19.54952420049043
19.54963531499674
19.549744212394266
19.54984969878039
19.549950606895944
19.550045809361166
19.550134230812507
19.55021486220046
19.550286773448402
19.55034912670658
19.55040118880084
19.55044234242692
19.55047209626154
19.550490093190174
19.550496116398733
19.55875187464909
19.558757630600997
19.558774835663293
19.558803302427783
19.558842721384856
19.558892664540092
19.558952591481578
19.559021855109734
19.559099710339282
19.559185321318637
19.55927777168421
19.559376073659514
19.559479177339973
19.559585981710402
19.559695344953166
19.559806094456412
19.55991703813822
19.560026975507075
19.560134709162174
19.560239056721485
19.56033886302513
19.56043301332248
19.560520445290727
19.560600163103825
19.560671249796215
19.560732880141163
19.560784332677663
19.56082500046657
19.560854400774264
19.56087218292322
19.56087813408814
19.562218588213682
19.562224322946616
19.56224146467079
19.562269826919227
19.562309101703686
19.562358863066862
19.562418573064264
19.56248758740503
19.562565164056345
19.56265047038099
19.562742593314628
19.562840548412908
19.562943289106737
19.563049717707184
19.563158695725118
19.563269053909018
19.563379603605892
19.5634891478641
19.563596492971868
19.56370046041185
19.563799899073167
19.56389369842056
19.56398080047311
19.564060213797
19.564131025772138
19.564192415347677
19.564243664931258
19.56428417100246
19.56431345365781
19.56433116433896
19.564337091533112
