# vtk DataFile Version 2.0
Unstructured Grid Example
ASCII
DATASET UNSTRUCTURED_GRID

POINTS 961 float
0.400000004 0.01999999956 0
0.3866666556 0.01999999956 0
0.3733333348 0.01999999956 0
0.3600000144 0.01999999956 0
0.346666664 0.01999999956 0
0.3333333432 0.01999999956 0
0.3199999928 0.01999999956 0
0.3066666724 0.01999999956 0
0.293333322 0.01999999956 0
0.2800000012 0.01999999956 0
0.2666666804 0.01999999956 0
0.25333333 0.01999999956 0
0.2399999948 0.01999999956 0
0.226666674 0.01999999956 0
0.2133333384 0.01999999956 0
0.2000000028 0.01999999956 0
0.1866666676 0.01999999956 0
0.173333332 0.01999999956 0
0.1599999964 0.01999999956 0
0.1466666608 0.01999999956 0
0.1333333404 0.01999999956 0
0.1199999972 0.01999999956 0
0.1066666692 0.01999999956 0
0.0933333336 0.01999999956 0
0.0799999984 0.01999999956 0
0.06666667 0.01999999956 0
0.0533333348 0.01999999956 0
0.03999999912 0.01999999956 0
0.02666666732 0.01999999956 0
0.01333333364 0.01999999956 0
0.0 0.01999999956 0
0.400000004 0.00666666684 0
0.3866666556 0.00666666684 0
0.3733333348 0.00666666684 0
0.3600000144 0.00666666684 0
0.346666664 0.00666666684 0
0.3333333432 0.00666666684 0
0.3199999928 0.00666666684 0
0.3066666724 0.00666666684 0
0.293333322 0.00666666684 0
0.2800000012 0.00666666684 0
0.2666666804 0.00666666684 0
0.25333333 0.00666666684 0
0.2399999948 0.00666666684 0
0.226666674 0.00666666684 0
0.2133333384 0.00666666684 0
0.2000000028 0.00666666684 0
0.1866666676 0.00666666684 0
0.173333332 0.00666666684 0
0.1599999964 0.00666666684 0
0.1466666608 0.00666666684 0
0.1333333404 0.00666666684 0
0.1199999972 0.00666666684 0
0.1066666692 0.00666666684 0
0.0933333336 0.00666666684 0
0.0799999984 0.00666666684 0
0.06666667 0.00666666684 0
0.0533333348 0.00666666684 0
0.03999999912 0.00666666684 0
0.02666666732 0.00666666684 0
0.01333333364 0.00666666684 0
0.0 0.00666666684 0
0.400000004 -0.00666666684 0
0.3866666556 -0.00666666684 0
0.3733333348 -0.00666666684 0
0.3600000144 -0.00666666684 0
0.346666664 -0.00666666684 0
0.3333333432 -0.00666666684 0
0.3199999928 -0.00666666684 0
0.3066666724 -0.00666666684 0
0.293333322 -0.00666666684 0
0.2800000012 -0.00666666684 0
0.2666666804 -0.00666666684 0
0.25333333 -0.00666666684 0
0.2399999948 -0.00666666684 0
0.226666674 -0.00666666684 0
0.2133333384 -0.00666666684 0
0.2000000028 -0.00666666684 0
0.1866666676 -0.00666666684 0
0.173333332 -0.00666666684 0
0.1599999964 -0.00666666684 0
0.1466666608 -0.00666666684 0
0.1333333404 -0.00666666684 0
0.1199999972 -0.00666666684 0
0.1066666692 -0.00666666684 0
0.0933333336 -0.00666666684 0
0.0799999984 -0.00666666684 0
0.06666667 -0.00666666684 0
0.0533333348 -0.00666666684 0
0.03999999912 -0.00666666684 0
0.02666666732 -0.00666666684 0
0.01333333364 -0.00666666684 0
0.0 -0.00666666684 0
0.400000004 -0.01999999956 0
0.3866666556 -0.01999999956 0
0.3733333348 -0.01999999956 0
0.3600000144 -0.01999999956 0
0.346666664 -0.01999999956 0
0.3333333432 -0.01999999956 0
0.3199999928 -0.01999999956 0
0.3066666724 -0.01999999956 0
0.293333322 -0.01999999956 0
0.2800000012 -0.01999999956 0
0.2666666804 -0.01999999956 0
0.25333333 -0.01999999956 0
0.2399999948 -0.01999999956 0
0.226666674 -0.01999999956 0
0.2133333384 -0.01999999956 0
0.2000000028 -0.01999999956 0
0.1866666676 -0.01999999956 0
0.173333332 -0.01999999956 0
0.1599999964 -0.01999999956 0
0.1466666608 -0.01999999956 0
0.1333333404 -0.01999999956 0
0.1199999972 -0.01999999956 0
0.1066666692 -0.01999999956 0
0.0933333336 -0.01999999956 0
0.0799999984 -0.01999999956 0
0.06666667 -0.01999999956 0
0.0533333348 -0.01999999956 0
0.03999999912 -0.01999999956 0
0.02666666732 -0.01999999956 0
0.01333333364 -0.01999999956 0
0.0 -0.01999999956 0
0.400000004 -0.03333333508 0
0.3866666556 -0.03333333508 0
0.3733333348 -0.03333333508 0
0.3600000144 -0.03333333508 0
0.346666664 -0.03333333508 0
0.3333333432 -0.03333333508 0
0.3199999928 -0.03333333508 0
0.3066666724 -0.03333333508 0
0.293333322 -0.03333333508 0
0.2800000012 -0.03333333508 0
0.2666666804 -0.03333333508 0
0.25333333 -0.03333333508 0
0.2399999948 -0.03333333508 0
0.226666674 -0.03333333508 0
0.2133333384 -0.03333333508 0
0.2000000028 -0.03333333508 0
0.1866666676 -0.03333333508 0
0.173333332 -0.03333333508 0
0.1599999964 -0.03333333508 0
0.1466666608 -0.03333333508 0
0.1333333404 -0.03333333508 0
0.1199999972 -0.03333333508 0
0.1066666692 -0.03333333508 0
0.0933333336 -0.03333333508 0
0.0799999984 -0.03333333508 0
0.06666667 -0.03333333508 0
0.0533333348 -0.03333333508 0
0.03999999912 -0.03333333508 0
0.02666666732 -0.03333333508 0
0.01333333364 -0.03333333508 0
0.0 -0.03333333508 0
0.400000004 -0.0466666668 0
0.3866666556 -0.0466666668 0
0.3733333348 -0.0466666668 0
0.3600000144 -0.0466666668 0
0.346666664 -0.0466666668 0
0.3333333432 -0.0466666668 0
0.3199999928 -0.0466666668 0
0.3066666724 -0.0466666668 0
0.293333322 -0.0466666668 0
0.2800000012 -0.0466666668 0
0.2666666804 -0.0466666668 0
0.25333333 -0.0466666668 0
0.2399999948 -0.0466666668 0
0.226666674 -0.0466666668 0
0.2133333384 -0.0466666668 0
0.2000000028 -0.0466666668 0
0.1866666676 -0.0466666668 0
0.173333332 -0.0466666668 0
0.1599999964 -0.0466666668 0
0.1466666608 -0.0466666668 0
0.1333333404 -0.0466666668 0
0.1199999972 -0.0466666668 0
0.1066666692 -0.0466666668 0
0.0933333336 -0.0466666668 0
0.0799999984 -0.0466666668 0
0.06666667 -0.0466666668 0
0.0533333348 -0.0466666668 0
0.03999999912 -0.0466666668 0
0.02666666732 -0.0466666668 0
0.01333333364 -0.0466666668 0
0.0 -0.0466666668 0
0.400000004 -0.0599999988 0
0.3866666556 -0.0599999988 0
0.3733333348 -0.0599999988 0
0.3600000144 -0.0599999988 0
0.346666664 -0.0599999988 0
0.3333333432 -0.0599999988 0
0.3199999928 -0.0599999988 0
0.3066666724 -0.0599999988 0
0.293333322 -0.0599999988 0
0.2800000012 -0.0599999988 0
0.2666666804 -0.0599999988 0
0.25333333 -0.0599999988 0
0.2399999948 -0.0599999988 0
0.226666674 -0.0599999988 0
0.2133333384 -0.0599999988 0
0.2000000028 -0.0599999988 0
0.1866666676 -0.0599999988 0
0.173333332 -0.0599999988 0
0.1599999964 -0.0599999988 0
0.1466666608 -0.0599999988 0
0.1333333404 -0.0599999988 0
0.1199999972 -0.0599999988 0
0.1066666692 -0.0599999988 0
0.0933333336 -0.0599999988 0
0.0799999984 -0.0599999988 0
0.06666667 -0.0599999988 0
0.0533333348 -0.0599999988 0
0.03999999912 -0.0599999988 0
0.02666666732 -0.0599999988 0
0.01333333364 -0.0599999988 0
0.0 -0.0599999988 0
0.400000004 -0.0733333304 0
0.3866666556 -0.0733333304 0
0.3733333348 -0.0733333304 0
0.3600000144 -0.0733333304 0
0.346666664 -0.0733333304 0
0.3333333432 -0.0733333304 0
0.3199999928 -0.0733333304 0
0.3066666724 -0.0733333304 0
0.293333322 -0.0733333304 0
0.2800000012 -0.0733333304 0
0.2666666804 -0.0733333304 0
0.25333333 -0.0733333304 0
0.2399999948 -0.0733333304 0
0.226666674 -0.0733333304 0
0.2133333384 -0.0733333304 0
0.2000000028 -0.0733333304 0
0.1866666676 -0.0733333304 0
0.173333332 -0.0733333304 0
0.1599999964 -0.0733333304 0
0.1466666608 -0.0733333304 0
0.1333333404 -0.0733333304 0
0.1199999972 -0.0733333304 0
0.1066666692 -0.0733333304 0
0.0933333336 -0.0733333304 0
0.0799999984 -0.0733333304 0
0.06666667 -0.0733333304 0
0.0533333348 -0.0733333304 0
0.03999999912 -0.0733333304 0
0.02666666732 -0.0733333304 0
0.01333333364 -0.0733333304 0
0.0 -0.0733333304 0
0.400000004 -0.086666666 0
0.3866666556 -0.086666666 0
0.3733333348 -0.086666666 0
0.3600000144 -0.086666666 0
0.346666664 -0.086666666 0
0.3333333432 -0.086666666 0
0.3199999928 -0.086666666 0
0.3066666724 -0.086666666 0
0.293333322 -0.086666666 0
0.2800000012 -0.086666666 0
0.2666666804 -0.086666666 0
0.25333333 -0.086666666 0
0.2399999948 -0.086666666 0
0.226666674 -0.086666666 0
0.2133333384 -0.086666666 0
0.2000000028 -0.086666666 0
0.1866666676 -0.086666666 0
0.173333332 -0.086666666 0
0.1599999964 -0.086666666 0
0.1466666608 -0.086666666 0
0.1333333404 -0.086666666 0
0.1199999972 -0.086666666 0
0.1066666692 -0.086666666 0
0.0933333336 -0.086666666 0
0.0799999984 -0.086666666 0
0.06666667 -0.086666666 0
0.0533333348 -0.086666666 0
0.03999999912 -0.086666666 0
0.02666666732 -0.086666666 0
0.01333333364 -0.086666666 0
0.0 -0.086666666 0
0.400000004 -0.1000000016 0
0.3866666556 -0.1000000016 0
0.3733333348 -0.1000000016 0
0.3600000144 -0.1000000016 0
0.346666664 -0.1000000016 0
0.3333333432 -0.1000000016 0
0.3199999928 -0.1000000016 0
0.3066666724 -0.1000000016 0
0.293333322 -0.1000000016 0
0.2800000012 -0.1000000016 0
0.2666666804 -0.1000000016 0
0.25333333 -0.1000000016 0
0.2399999948 -0.1000000016 0
0.226666674 -0.1000000016 0
0.2133333384 -0.1000000016 0
0.2000000028 -0.1000000016 0
0.1866666676 -0.1000000016 0
0.173333332 -0.1000000016 0
0.1599999964 -0.1000000016 0
0.1466666608 -0.1000000016 0
0.1333333404 -0.1000000016 0
0.1199999972 -0.1000000016 0
0.1066666692 -0.1000000016 0
0.0933333336 -0.1000000016 0
0.0799999984 -0.1000000016 0
0.06666667 -0.1000000016 0
0.0533333348 -0.1000000016 0
0.03999999912 -0.1000000016 0
0.02666666732 -0.1000000016 0
0.01333333364 -0.1000000016 0
0.0 -0.1000000016 0
0.400000004 -0.1133333372 0
0.3866666556 -0.1133333372 0
0.3733333348 -0.1133333372 0
0.3600000144 -0.1133333372 0
0.346666664 -0.1133333372 0
0.3333333432 -0.1133333372 0
0.3199999928 -0.1133333372 0
0.3066666724 -0.1133333372 0
0.293333322 -0.1133333372 0
0.2800000012 -0.1133333372 0
0.2666666804 -0.1133333372 0
0.25333333 -0.1133333372 0
0.2399999948 -0.1133333372 0
0.226666674 -0.1133333372 0
0.2133333384 -0.1133333372 0
0.2000000028 -0.1133333372 0
0.1866666676 -0.1133333372 0
0.173333332 -0.1133333372 0
0.1599999964 -0.1133333372 0
0.1466666608 -0.1133333372 0
0.1333333404 -0.1133333372 0
0.1199999972 -0.1133333372 0
0.1066666692 -0.1133333372 0
0.0933333336 -0.1133333372 0
0.0799999984 -0.1133333372 0
0.06666667 -0.1133333372 0
0.0533333348 -0.1133333372 0
0.03999999912 -0.1133333372 0
0.02666666732 -0.1133333372 0
0.01333333364 -0.1133333372 0
0.0 -0.1133333372 0
0.400000004 -0.1266666652 0
0.3866666556 -0.1266666652 0
0.3733333348 -0.1266666652 0
[...]
POINT_DATA 961
SCALARS Temp float 1
LOOKUP_TABLE default
0.7239835487762385
0.752899680276405
0.773650946011198
0.7887391747939129
0.7997944706770208
0.8079346322087632
0.8139554620563695
0.818429748159942
0.8217743884843935
0.8242948487561139
0.8262176052301283
0.8277126405954867
0.8289098570638463
0.8299118501026764
0.8308034394211057
0.831659229744223
0.8325505343518144
0.8335517396053365
0.8347469912380975
0.83623784359917
0.8381525752993294
0.8406584537188779
0.8439773685921982
0.8484080446656973
0.8543558626301475
0.8623751803319484
0.8732296281238637
0.8879803197006331
0.9081202148264954
0.9358160307434397
0.9745047271987954
0.7641508966149033
0.7925052044972736
0.813033586856722
0.8280392255897006
0.8390565597316658
0.8471811381244005
0.8531972737775781
0.8576722862946523
0.8610202162282866
0.8635450424952547
0.8654724779745244
0.8669721462332382
0.8681738224020309
0.8691800991904504
0.8700758626439131
0.8709358244942894
0.8718314198605418
0.8728371562995944
0.8740372818112581
0.8755334072380019
0.8774537793781192
0.879965464093661
0.8832898568176375
0.8877246471971812
0.8936732117635774
0.9016860904619509
0.9125195774293745
0.9272196219014768
0.9472476107340662
0.9746610517179501
1.0124400817074952
2.6447486736869985
2.648961157010382
2.660701466505321
2.671529573906253
2.6804835606937134
2.6876076249623466
2.6931855898191985
2.6975238542495736
2.700894196400183
2.703522182533632
2.7055903046480525
2.707245290869166
2.708606028302109
2.7097709731978874
2.7108247455873946
2.711844025874183
2.7129030388258277
2.7140789319137975
2.715457338611178
2.7171384723645113
2.719244091521254
2.721925565829207
2.7253731836454285
2.729826334044707
2.735582974047499
2.743003526963604
2.7524952543267593
2.764435527128524
2.7788824853258185
2.7945427722274623
2.800164981805661
4.501909372838305
4.504208194351711
4.509850385944231
4.5169005129527795
4.523585095047224
4.529380474172823
4.534201559036357
4.538129456763368
4.541298308822957
4.543849487414132
4.545914132396876
4.547607933311751
4.549031350723424
4.5502721779510695
4.551409012222663
4.552515061232319
4.553662084352348
4.554924410480701
4.556383064784855
4.558130015316733
4.560272449051245
4.562936779439845
4.5662715079781755
4.570447153468277
4.575648990322012
4.582053412214557
4.589766670897527
4.598673481458412
4.6080727569247335
4.61559716324736
4.618662846881687
6.3535849289644375
6.3548083282570875
6.358114667526419
6.362591355034538
6.367358678897106
6.371838103317547
6.375791506620099
6.379162659528043
6.381983962114584
6.384325908552667
6.386271595411161
6.387904595717435
6.389304008227841
6.390543318620924
6.3916912329588005
6.392813544693901
6.3939755346098845
6.395244594694374
6.396692876302442
6.398399728822983
6.400453550356878
6.402952378173374
6.406001883389332
6.409708435746633
6.41416263942627
6.419405009199661
6.425358403800784
6.431703219209545
6.4376660359741065
6.442071831550151
6.443702352178157
8.201950642292246
8.202695771921322
8.20475753127969
8.20770940623457
8.211057759627833
8.214408811527594
8.217522099798193
8.220289120312977
8.222684791980145
8.22473082593175
8.226472521817165
8.227965286042277
8.229267476739352
8.230437147308827
8.231531085498155
8.232605188296686
8.23371556963714
8.234919965451263
8.236279100965227
8.237857647114478
8.239724248249711
8.241949833287919
8.244602869567663
8.247739539493887
8.251385504357161
8.255504678820504
8.259950241467898
8.264399667704165
8.268326246127856
8.271070366636327
8.272062355383333
10.048088150860501
10.04856270457357
10.04990058889203
10.051878340346104
10.054216613914292
10.056660267557087
10.059024262344881
10.061200132532516
10.063141031432112
10.06484160822572
10.066321654071038
10.067614777574127
10.06876137529742
10.069804720160706
10.070789108688672
10.071759308258741
10.07276075236286
10.073840036729077
10.075045343258699
10.076426383808126
10.078033342727897
10.079914109648517
10.082108749765261
10.084639908330397
10.087497500695351
10.090616680289418
10.093850907174462
10.096951831761148
10.099577934191014
10.101355697157716
10.101986485838468
11.892474257784446
11.892779901221754
11.893651123517689
11.894965966601744
11.896563345399018
11.8982840742941
11.899999718812495
11.901623856514288
11.903109698874088
11.90444126858341
11.905623747013118
11.906675534731287
11.907622643804231
11.908495162972304
11.909325263147963
11.91014625332397
11.910992268185757
11.911898209113868
11.912899604887132
11.914032030918333
11.915329654480125
11.91682237735974
11.918530897070339
11.920459069428086
11.922583166738635
11.924838842126226
11.927109297434098
11.929221989377023
11.930963650087246
11.932118724664795
11.932524118266414
13.735345765310592
13.735534390545356
13.736075998523024
13.736904672172312
13.737930341039256
13.73905939596182
13.740211189464825
13.741326696940938
13.742369894080547
13.743324508877496
13.744189108321596
13.744972341042994
13.74568918873582
13.746358374667212
13.747000740825984
13.747638334687966
13.748293940272747
13.748990786738483
13.749752189557743
13.75060086085108
13.751557589856475
13.752638964129165
13.753853770810375
13.755197897664303
13.756647888448413
13.758154283169102
13.759637245193458
13.760988317319356
13.76208197225714
13.762797586390725
13.76304694597561
15.576818046943572
15.576916668099372
15.577201417119614
15.57764177933915
15.578195154024566
15.57881583829107
15.579462756108532
15.58010414253717
15.580719032233013
15.581296394932796
15.581833145885886
15.582331931770247
15.582799224658125
15.583243905235692
15.583676302397771
15.584107588583763
15.584549406033439
15.585013583861032
15.58551181455881
15.586055148927564
15.586653156318947
15.587312597506779
15.58803546720279
15.588816407230388
15.58963970500487
15.590476585571142
15.591284040230102
15.592006769015597
15.592583428141014
15.592956919213396
15.593086375825644
17.41694639123272
17.416967218383235
17.417028425686432
17.417126424807538
17.417255939769476
17.417410836772454
17.417584943634054
17.417772684282635
17.41796946626649
17.41817182237882
17.418377381565328
17.41858473152023
17.41879323686363
17.419002853793955
17.419213954496357
17.419427167082624
17.419643229982146
17.419862848889878
17.42008654680275
17.420314496309242
17.42054632536048
17.420780895576165
17.42101605633089
17.421248408953517
17.421473124201587
17.42168389949856
17.421873151528732
17.422032527357562
17.422153753940847
17.422229727817903
17.42225562325398
17.519614366422832
17.519631567976198
17.519682308940183
17.519764134741504
17.51987337080785
17.520005629845514
17.520156340788837
17.52032119229358
17.5204964433281
17.520679080248392
17.52086685450068
17.521058228889153
17.521252272814156
17.521448537138657
17.521646920992836
17.521847539329055
17.52205059507452
17.522256249886873
17.522464489902454
17.522674981848226
17.522886917176915
17.52309884911138
17.52330853005324
17.523512780802896
17.52370742191715
17.523887322454513
17.524046614224467
17.524179102166716
17.524278859347096
17.524340930088982
17.52436200789419
17.62217587314591
17.622190362784607
17.622233227723832
17.622302738906725
17.6223962699613
17.622510616615234
17.622642344326376
17.62278809719908
17.62294483576722
17.62310997914857
17.62328146694353
17.623457750099845
17.623637735090906
17.623820702686906
17.62400621039862
17.62419398748355
17.624383828605097
17.624575483860735
17.624768545480457
17.624962330661774
17.625155761950587
17.62534725242093
17.62553460331229
17.625714939742398
17.625884703042562
17.62603973352043
17.626175465520724
17.626287242151697
17.62637073100823
17.626422386240232
17.626439875981095
17.724636050965312
17.72464846248247
17.7246852626573
17.724745200419335
17.724826352341857
17.72492632905092
17.725042507789958
17.725172248258072
17.725313070837352
17.725462774805933
17.725619503763646
17.72578175805851
17.72594836851748
17.726118445715656
17.726291310518636
17.726466413618933
17.726643250761697
17.726821273417954
17.726999797465133
17.727177911679693
17.727354389252692
17.727527609923527
17.727695498932505
17.727855502551886
17.72800461001126
17.72813944212875
17.728256414840676
17.728351975591636
17.728422895064856
17.728466576411936
17.728481332049757
17.826998755753873
17.82700954195777
17.82704157990055
17.8270939412522
17.827165183999632
17.82725348890279
17.827356817745887
17.827473065088316
17.827600190673852
17.827736313653944
17.827879772595576
17.828029146718862
17.82818324670838
17.828341084521544
17.828501825234216
17.828664727159335
17.82882907666763
17.828994118391655
17.829158984422993
17.82932262538501
17.829483747154576
17.829640760174126
17.829791745700785
17.82993445391596
17.830066337908324
17.830184635765065
17.83028650223451
17.830369184785887
17.830430229919198
17.830467693762834
17.830480325640046
17.9292669009565
17.929276394254632
17.929304631428693
17.929350906667768
17.929414113722697
17.929492837955337
17.929585465771947
17.929690292162793
17.92980561888883
17.929929827920063
17.9300614329954
17.93019910305854
17.930341662505796
17.930488074554887
17.93063740885147
17.930788798162226
17.930941389932794
17.931094293639916
17.931246527816104
17.93139696990367
17.931544312581487
17.93168703247822
17.93182337393123
17.93195135906542
17.932068824623062
17.93217349309836
17.93226307658589
17.932335407707885
17.93238858691577
17.932421128322012
17.9324320840692
18.028164939019206
18.028173385821606
18.028198538026587
18.028239846199238
18.028296442319544
18.028367203001498
18.028450826330758
18.02854590874057
18.028651017998605
18.028764749799496
18.028885770616867
18.029012840193776
18.0291448167139
18.029280649008374
18.029419355642002
18.029559994579575
18.029701628445753
18.029843286195874
18.029983924895923
18.030122394592183
18.0302574094549
18.03038753003838
18.0305111579774
18.03062655176198
18.030731861951548
18.030825190728233
18.030904673015495
18.030968574091037
18.031015395861765
18.031043979444632
18.031053591071384
18.120393571893313
18.120401157645126
18.120423765537442
18.12046095799022
18.120512038782117
18.120576097177462
18.120652062668526
18.120738760439075
18.120834965913687
18.120939448176916
18.121051005013236
18.12116848317751
18.12129078591323
18.121416870865996
18.121545737442588
18.121676406420963
18.121807896081027
18.121939195402526
18.122069237630182
18.122196876797048
18.122320869822556
18.122439868061264
18.12255241863955
18.122656982361576
18.12275196543978
18.12283576846853
18.12290684959265
18.12296379765867
18.123005409731633
18.12303076433036
18.123039281816304
18.20592055111275
18.20592742086909
18.2059479088791
18.205981658783557
18.206028099990625
18.206086478946567
18.206155898705422
18.206235359344287
18.206323799062964
18.206420127522684
18.20652325434135
18.206632106827715
18.206745638430903
18.20686283030923
18.206982684603545
18.20710421154267
18.20722641398961
18.207348269660688
18.207468713845657
18.207586624764037
18.207700813615425
18.207810022390287
18.207912929095713
18.208008165868627
18.20809434671296
18.208170107460393
18.208234155040643
18.208285322701364
18.20832262720444
18.20834532187031
18.20835293973654
18.284715984379908
18.284722254063166
18.28474096247715
18.284771813046202
18.28481432822503
18.28486787198838
18.2849316788633
18.285004883704215
18.285086552988744
18.28517571054645
18.285271360780026
18.285372503996882
18.285478145047925
18.285587297216463
18.285698979690046
18.28581221023812
18.285925996143774
18.28603932332484
18.286151146007924
18.286260378649118
18.286365891664726
18.286466513389115
18.28656103745967
18.28664824017728
18.286726904399472
18.28679585211445
18.286853983072856
18.286900316854314
18.286934035591766
18.28695452294876
18.286961395459915
18.356752282907173
18.356758047117154
18.35677525443549
18.35680365283013
18.356842834469496
18.35689225214187
18.35695124089773
18.35701904026081
18.35709481837418
18.357177692033982
18.35726674576152
18.35736104504499
18.357459644806426
18.357561594743807
18.357665939762242
18.3577717167434
18.35787795024048
18.357983646780514
18.35808778972126
18.35818933596672
18.358287215693036
18.358380336995197
18.358467594364768
18.35854788488591
18.358620128715284
18.358683295741915
18.358736436129472
18.358778712715996
18.358809433355496
18.358828079986008
18.35883433175337
18.422004134934802
18.422009472460612
18.422025411237286
18.42205173277465
18.422088082001114
18.422133979445228
18.422188837653167
18.422251977997256
18.422322649603327
18.422400045147675
18.422483316715475
18.422571587309278
18.42266395899109
18.42275951911656
18.422857342834746
18.42295649282785
18.423056018505214
18.423154954130943
18.423252317479303
18.42334710999655
18.4234383192926
18.423524925483644
18.42360591012092
18.423680271112154
18.423747040304782
18.423805305480776
18.423854234771973
18.423893101939115
18.42392131121515
18.4239384193266
18.423944152838345
18.48044888612398
18.480453863895804
18.480468732133193
18.48049329781974
18.48052724613733
18.48057014966531
18.480621481080057
18.48068062609115
18.480746898556134
18.48081955313937
18.480897798708114
18.48098080844522
18.481067727623724
18.48115768037062
18.48124977359859
18.481343098877225
18.48143673416054
18.48152974469613
18.481621184421222
18.4817100985631
18.481795528012306
18.4818765166945
18.48195212057849
18.4820214213704
18.48208354170754
18.482137663511878
18.48218304777715
18.48221905459181
18.482245162538373
18.482260985664038
18.48226628672262
18.53206580651863
18.532070482494056
18.532084451991103
18.532107541449825
18.532139466924928
18.532179841175093
18.532228183704536
18.532283930917973
18.53234644844997
18.532415041508937
18.532488966402063
18.53256743954675
18.53264964489034
18.532734740971424
18.532821865830964
18.532910140394797
18.532998672009537
18.533086557344753
18.533172885736157
18.53325674348409
18.53333721948146
18.53341341317556
18.533484443453062
18.53354946123024
18.533607662716054
18.533658304946695
18.533700722086373
18.533734341566994
18.533758699520217
18.533773454107962
18.53377839583083
18.576837063524888
18.576841488825945
18.57685471137654
18.576876572499796
18.57690681195446
18.57694507352738
18.576990913172004
18.577043807165914
18.577103162409134
18.577168325068698
18.577238590693764
18.577313212371813
18.577391407831907
18.57747236665779
18.577555255858957
18.57763922431053
18.577723407561017
18.57780693214091
18.57788892026781
18.577968495306735
18.578044788215582
18.578116945814926
18.578184139453974
18.578245576651334
18.578300512824363
18.57834826466077
18.578388223804275
18.578419870129018
18.578442784277918
18.578456658362875
18.57846130416762
18.614746807526892
18.614751028061775
18.614763640172413
18.61478449651196
18.61481335494358
18.61484988307296
18.614893665027502
18.61494420818574
18.615000952002454
18.61506327541599
18.61513050591204
18.615201927026888
18.615276785182584
18.61535429696357
18.615433655124317
18.615514033757762
18.615594593982543
18.615674489227803
18.615752870874196
18.615828894493887
18.615901726814144
18.615970554121095
18.61603459067693
18.61609308957349
18.616145353265384
18.616190745301466
18.616228702064625
18.61625874394394
18.616280485769956
18.616293645618377
18.61629805150352
18.6457819112889
18.645785969003285
18.645798095542514
18.64581815205761
18.645845910028545
18.645881055053245
18.64592319266595
18.64597185405674
18.64602650384223
18.64608654658483
18.64615133508626
18.646220177402878
18.646292343464275
18.64636707236328
18.646443578645727
18.6465210579712
18.64659869339569
18.64667566132009
18.64675113776077
18.646824305100743
18.64689435937034
18.646960518685802
18.64702203142818
18.64707818646869
18.647128322791378
18.64717184000449
18.647208208654877
18.64723697987836
18.64725779432423
18.647270389605772
18.647274605921726
18.669931595155557
18.669935529028173
18.669947286138356
18.669966733807627
18.66999365342598
18.670027743731684
18.670068625967374
18.670115848903748
18.670168895875875
18.670227190683285
18.670290105336584
18.670356966721418
18.670427063050766
18.670499651144407
18.670573962895226
18.670649211252442
18.670724596895667
18.67079931462083
18.67087256002127
18.67094353656364
18.671011463054548
18.671075582064567
18.671135167904353
18.671189536372744
18.671238053713342
18.671280146248197
18.67131530968035
18.6713431176733
18.67136322971963
18.671375397650564
18.67137947051476
18.687187336777363
18.687191183636056
18.68720268112618
18.68722170075765
18.687248030658814
18.68728137852673
18.687321376351957
18.68736758498995
18.68741950071546
18.68747656071637
18.687538150476264
18.687603610201645
18.687672241157337
18.68774331292787
18.687816069988454
18.68788973788821
18.68796353016727
18.68803665501512
18.688108322205235
18.688177750365845
18.68824417454943
18.68830685462606
18.688365083106422
18.688418194556196
18.688465574098636
18.688506666457922
18.688540984587647
18.688568117542108
18.688587737649794
18.688599606405937
18.688603578865894
18.697543206124543
18.697547001337753
18.697558344715677
18.697577110198026
18.697603089826778
18.6976359965115
18.69767546851142
18.697721073751946
18.697772316106587
18.69782864066041
18.697889440884612
18.697954064927174
18.698021821878857
18.698091989019954
18.69816381844575
18.698236543358227
18.69830938511485
18.698381560035195
18.698452286472165
18.69852079218585
18.698586321963134
18.698648145985118
18.698705567555493
18.698757932317562
18.69880463649299
18.698845135585163
18.698878952621858
18.69890568562328
18.69892501438081
18.698936706000232
18.69894061902081
18.700995552408358
18.70099933049885
18.70101062277876
18.701029303984235
18.701055167440874
18.70108792776945
18.701127225289486
18.701172630253794
18.701223649041864
18.701279729349082
18.701340267293432
18.701404613661527
18.70147208015174
18.701541946615322
18.70161346769879
18.701685879169858
18.701758405007823
18.70183026425715
18.701900678141765
18.7019688774709
18.702034110273715
18.702095650156657
18.702152804000107
18.702204921109875
18.702251401369544
18.70229170383279
18.702325354840564
18.70235195535799
18.702371187625364
18.702382820588166
18.702386713927506
