# vtk DataFile Version 2.0
Unstructured Grid Example
ASCII
DATASET UNSTRUCTURED_GRID

POINTS 961 float
0.400000004 0.01999999956 0
0.3866666556 0.01999999956 0
0.3733333348 0.01999999956 0
0.3600000144 0.01999999956 0
0.346666664 0.01999999956 0
0.3333333432 0.01999999956 0
0.3199999928 0.01999999956 0
0.3066666724 0.01999999956 0
0.293333322 0.01999999956 0
0.2800000012 0.01999999956 0
0.2666666804 0.01999999956 0
0.25333333 0.01999999956 0
0.2399999948 0.01999999956 0
0.226666674 0.01999999956 0
0.2133333384 0.01999999956 0
0.2000000028 0.01999999956 0
0.1866666676 0.01999999956 0
0.173333332 0.01999999956 0
0.1599999964 0.01999999956 0
0.1466666608 0.01999999956 0
0.1333333404 0.01999999956 0
0.1199999972 0.01999999956 0
0.1066666692 0.01999999956 0
0.0933333336 0.01999999956 0
0.0799999984 0.01999999956 0
0.06666667 0.01999999956 0
0.0533333348 0.01999999956 0
0.03999999912 0.01999999956 0
0.02666666732 0.01999999956 0
0.01333333364 0.01999999956 0
0.0 0.01999999956 0
0.400000004 0.00666666684 0
0.3866666556 0.00666666684 0
0.3733333348 0.00666666684 0
0.3600000144 0.00666666684 0
0.346666664 0.00666666684 0
0.3333333432 0.00666666684 0
0.3199999928 0.00666666684 0
0.3066666724 0.00666666684 0
0.293333322 0.00666666684 0
0.2800000012 0.00666666684 0
0.2666666804 0.00666666684 0
0.25333333 0.00666666684 0
0.2399999948 0.00666666684 0
0.226666674 0.00666666684 0
0.2133333384 0.00666666684 0
0.2000000028 0.00666666684 0
0.1866666676 0.00666666684 0
0.173333332 0.00666666684 0
0.1599999964 0.00666666684 0
0.1466666608 0.00666666684 0
0.1333333404 0.00666666684 0
0.1199999972 0.00666666684 0
0.1066666692 0.00666666684 0
0.0933333336 0.00666666684 0
0.0799999984 0.00666666684 0
0.06666667 0.00666666684 0
0.0533333348 0.00666666684 0
0.03999999912 0.00666666684 0
0.02666666732 0.00666666684 0
0.01333333364 0.00666666684 0
0.0 0.00666666684 0
0.400000004 -0.00666666684 0
0.3866666556 -0.00666666684 0
0.3733333348 -0.00666666684 0
0.3600000144 -0.00666666684 0
0.346666664 -0.00666666684 0
0.3333333432 -0.00666666684 0
0.3199999928 -0.00666666684 0
0.3066666724 -0.00666666684 0
0.293333322 -0.00666666684 0
0.2800000012 -0.00666666684 0
0.2666666804 -0.00666666684 0
0.25333333 -0.00666666684 0
0.2399999948 -0.00666666684 0
0.226666674 -0.00666666684 0
0.2133333384 -0.00666666684 0
0.2000000028 -0.00666666684 0
0.1866666676 -0.00666666684 0
0.173333332 -0.00666666684 0
0.1599999964 -0.00666666684 0
0.1466666608 -0.00666666684 0
0.1333333404 -0.00666666684 0
0.1199999972 -0.00666666684 0
0.1066666692 -0.00666666684 0
0.0933333336 -0.00666666684 0
0.0799999984 -0.00666666684 0
0.06666667 -0.00666666684 0
0.0533333348 -0.00666666684 0
0.03999999912 -0.00666666684 0
0.02666666732 -0.00666666684 0
0.01333333364 -0.00666666684 0
0.0 -0.00666666684 0
0.400000004 -0.01999999956 0
0.3866666556 -0.01999999956 0
0.3733333348 -0.01999999956 0
0.3600000144 -0.01999999956 0
0.346666664 -0.01999999956 0
0.3333333432 -0.01999999956 0
0.3199999928 -0.01999999956 0
0.3066666724 -0.01999999956 0
0.293333322 -0.01999999956 0
0.2800000012 -0.01999999956 0
0.2666666804 -0.01999999956 0
0.25333333 -0.01999999956 0
0.2399999948 -0.01999999956 0
0.226666674 -0.01999999956 0
0.2133333384 -0.01999999956 0
0.2000000028 -0.01999999956 0
0.1866666676 -0.01999999956 0
0.173333332 -0.01999999956 0
0.1599999964 -0.01999999956 0
0.1466666608 -0.01999999956 0
0.1333333404 -0.01999999956 0
0.1199999972 -0.01999999956 0
0.1066666692 -0.01999999956 0
0.0933333336 -0.01999999956 0
0.0799999984 -0.01999999956 0
0.06666667 -0.01999999956 0
0.0533333348 -0.01999999956 0
0.03999999912 -0.01999999956 0
0.02666666732 -0.01999999956 0
0.01333333364 -0.01999999956 0
0.0 -0.01999999956 0
0.400000004 -0.03333333508 0
0.3866666556 -0.03333333508 0
0.3733333348 -0.03333333508 0
0.3600000144 -0.03333333508 0
0.346666664 -0.03333333508 0
0.3333333432 -0.03333333508 0
0.3199999928 -0.03333333508 0
0.3066666724 -0.03333333508 0
0.293333322 -0.03333333508 0
0.2800000012 -0.03333333508 0
0.2666666804 -0.03333333508 0
0.25333333 -0.03333333508 0
0.2399999948 -0.03333333508 0
0.226666674 -0.03333333508 0
0.2133333384 -0.03333333508 0
0.2000000028 -0.03333333508 0
0.1866666676 -0.03333333508 0
0.173333332 -0.03333333508 0
0.1599999964 -0.03333333508 0
0.1466666608 -0.03333333508 0
0.1333333404 -0.03333333508 0
0.1199999972 -0.03333333508 0
0.1066666692 -0.03333333508 0
0.0933333336 -0.03333333508 0
0.0799999984 -0.03333333508 0
0.06666667 -0.03333333508 0
0.0533333348 -0.03333333508 0
0.03999999912 -0.03333333508 0
0.02666666732 -0.03333333508 0
0.01333333364 -0.03333333508 0
0.0 -0.03333333508 0
0.400000004 -0.0466666668 0
0.3866666556 -0.0466666668 0
0.3733333348 -0.0466666668 0
0.3600000144 -0.0466666668 0
0.346666664 -0.0466666668 0
0.3333333432 -0.0466666668 0
0.3199999928 -0.0466666668 0
0.3066666724 -0.0466666668 0
0.293333322 -0.0466666668 0
0.2800000012 -0.0466666668 0
0.2666666804 -0.0466666668 0
0.25333333 -0.0466666668 0
0.2399999948 -0.0466666668 0
0.226666674 -0.0466666668 0
0.2133333384 -0.0466666668 0
0.2000000028 -0.0466666668 0
0.1866666676 -0.0466666668 0
0.173333332 -0.0466666668 0
0.1599999964 -0.0466666668 0
0.1466666608 -0.0466666668 0
0.1333333404 -0.0466666668 0
0.1199999972 -0.0466666668 0
0.1066666692 -0.0466666668 0
0.0933333336 -0.0466666668 0
0.0799999984 -0.0466666668 0
0.06666667 -0.0466666668 0
0.0533333348 -0.0466666668 0
0.03999999912 -0.0466666668 0
0.02666666732 -0.0466666668 0
0.01333333364 -0.0466666668 0
0.0 -0.0466666668 0
0.400000004 -0.0599999988 0
0.3866666556 -0.0599999988 0
0.3733333348 -0.0599999988 0
0.3600000144 -0.0599999988 0
0.346666664 -0.0599999988 0
0.3333333432 -0.0599999988 0
0.3199999928 -0.0599999988 0
0.3066666724 -0.0599999988 0
0.293333322 -0.0599999988 0
0.2800000012 -0.0599999988 0
0.2666666804 -0.0599999988 0
0.25333333 -0.0599999988 0
0.2399999948 -0.0599999988 0
0.226666674 -0.0599999988 0
0.2133333384 -0.0599999988 0
0.2000000028 -0.0599999988 0
0.1866666676 -0.0599999988 0
0.173333332 -0.0599999988 0
0.1599999964 -0.0599999988 0
0.1466666608 -0.0599999988 0
0.1333333404 -0.0599999988 0
0.1199999972 -0.0599999988 0
0.1066666692 -0.0599999988 0
0.0933333336 -0.0599999988 0
0.0799999984 -0.0599999988 0
0.06666667 -0.0599999988 0
0.0533333348 -0.0599999988 0
0.03999999912 -0.0599999988 0
0.02666666732 -0.0599999988 0
0.01333333364 -0.0599999988 0
0.0 -0.0599999988 0
0.400000004 -0.0733333304 0
0.3866666556 -0.0733333304 0
0.3733333348 -0.0733333304 0
0.3600000144 -0.0733333304 0
0.346666664 -0.0733333304 0
0.3333333432 -0.0733333304 0
0.3199999928 -0.0733333304 0
0.3066666724 -0.0733333304 0
0.293333322 -0.0733333304 0
0.2800000012 -0.0733333304 0
0.2666666804 -0.0733333304 0
0.25333333 -0.0733333304 0
0.2399999948 -0.0733333304 0
0.226666674 -0.0733333304 0
0.2133333384 -0.0733333304 0
0.2000000028 -0.0733333304 0
0.1866666676 -0.0733333304 0
0.173333332 -0.0733333304 0
0.1599999964 -0.0733333304 0
0.1466666608 -0.0733333304 0
0.1333333404 -0.0733333304 0
0.1199999972 -0.0733333304 0
0.1066666692 -0.0733333304 0
0.0933333336 -0.0733333304 0
0.0799999984 -0.0733333304 0
0.06666667 -0.0733333304 0
0.0533333348 -0.0733333304 0
0.03999999912 -0.0733333304 0
0.02666666732 -0.0733333304 0
0.01333333364 -0.0733333304 0
0.0 -0.0733333304 0
0.400000004 -0.086666666 0
0.3866666556 -0.086666666 0
0.3733333348 -0.086666666 0
0.3600000144 -0.086666666 0
0.346666664 -0.086666666 0
0.3333333432 -0.086666666 0
0.3199999928 -0.086666666 0
0.3066666724 -0.086666666 0
0.293333322 -0.086666666 0
0.2800000012 -0.086666666 0
0.2666666804 -0.086666666 0
0.25333333 -0.086666666 0
0.2399999948 -0.086666666 0
0.226666674 -0.086666666 0
0.2133333384 -0.086666666 0
0.2000000028 -0.086666666 0
0.1866666676 -0.086666666 0
0.173333332 -0.086666666 0
0.1599999964 -0.086666666 0
0.1466666608 -0.086666666 0
0.1333333404 -0.086666666 0
0.1199999972 -0.086666666 0
0.1066666692 -0.086666666 0
0.0933333336 -0.086666666 0
0.0799999984 -0.086666666 0
0.06666667 -0.086666666 0
0.0533333348 -0.086666666 0
0.03999999912 -0.086666666 0
0.02666666732 -0.086666666 0
0.01333333364 -0.086666666 0
0.0 -0.086666666 0
0.400000004 -0.1000000016 0
0.3866666556 -0.1000000016 0
0.3733333348 -0.1000000016 0
0.3600000144 -0.1000000016 0
0.346666664 -0.1000000016 0
0.3333333432 -0.1000000016 0
0.3199999928 -0.1000000016 0
0.3066666724 -0.1000000016 0
0.293333322 -0.1000000016 0
0.2800000012 -0.1000000016 0
0.2666666804 -0.1000000016 0
0.25333333 -0.1000000016 0
0.2399999948 -0.1000000016 0
0.226666674 -0.1000000016 0
0.2133333384 -0.1000000016 0
0.2000000028 -0.1000000016 0
0.1866666676 -0.1000000016 0
0.173333332 -0.1000000016 0
0.1599999964 -0.1000000016 0
0.1466666608 -0.1000000016 0
0.1333333404 -0.1000000016 0
0.1199999972 -0.1000000016 0
0.1066666692 -0.1000000016 0
0.0933333336 -0.1000000016 0
0.0799999984 -0.1000000016 0
0.06666667 -0.1000000016 0
0.0533333348 -0.1000000016 0
0.03999999912 -0.1000000016 0
0.02666666732 -0.1000000016 0
0.01333333364 -0.1000000016 0
0.0 -0.1000000016 0
0.400000004 -0.1133333372 0
0.3866666556 -0.1133333372 0
0.3733333348 -0.1133333372 0
0.3600000144 -0.1133333372 0
0.346666664 -0.1133333372 0
0.3333333432 -0.1133333372 0
0.3199999928 -0.1133333372 0
0.3066666724 -0.1133333372 0
0.293333322 -0.1133333372 0
0.2800000012 -0.1133333372 0
0.2666666804 -0.1133333372 0
0.25333333 -0.1133333372 0
0.2399999948 -0.1133333372 0
0.226666674 -0.1133333372 0
0.2133333384 -0.1133333372 0
0.2000000028 -0.1133333372 0
0.1866666676 -0.1133333372 0
0.173333332 -0.1133333372 0
0.1599999964 -0.1133333372 0
0.1466666608 -0.1133333372 0
0.1333333404 -0.1133333372 0
0.1199999972 -0.1133333372 0
0.1066666692 -0.1133333372 0
0.0933333336 -0.1133333372 0
0.0799999984 -0.1133333372 0
0.06666667 -0.1133333372 0
0.0533333348 -0.1133333372 0
0.03999999912 -0.1133333372 0
0.02666666732 -0.1133333372 0
0.01333333364 -0.1133333372 0
0.0 -0.1133333372 0
0.400000004 -0.1266666652 0
0.3866666556 -0.1266666652 0
0.3733333348 -0.1266666652 0
[...]
POINT_DATA 961
SCALARS Temp float 1
LOOKUP_TABLE default
0.7386078019676963
0.7681080662322066
0.7892786028182086
0.8046717583964453
0.8159505508708417
0.8242553494092575
0.8303980261270474
0.834962935494491
0.838375394229799
0.8409470365739549
0.8429089120884832
0.8444344357847349
0.8456561326492408
0.8466786693630488
0.8475885778071918
0.8484619685840773
0.8493715944540089
0.8503933434779986
0.8516130604307408
0.8531343506212621
0.8550880837730102
0.8576449063260241
0.8610311908436232
0.8655516973669886
0.8716199966682991
0.8798016462109208
0.8908757032034517
0.9059247168503761
0.9264718045801126
0.9547274489029622
0.9941980365237477
0.7795860283238467
0.8085131158713842
0.8294562687196747
0.8447651684904195
0.8560052362645754
0.8642941419738092
0.8704320359263044
0.8749976937112822
0.8784135168192593
0.8809896225433885
0.8829562815371947
0.8844865423182309
0.8857128001023784
0.8867397186304048
0.8876538973298139
0.8885315558392739
0.8894455710860353
0.890471954640945
0.8916966554776196
0.89322333640738
0.8951828345678765
0.8977455906811364
0.9011374728963639
0.9056621851185178
0.9117312533456684
0.9199063398799003
0.930959017365028
0.9459563640282866
0.9663892862434542
0.9943568508902365
1.0328993830757949
2.6981478154615086
2.7024454487535023
2.714423081145774
2.725470189828493
2.7346054142672673
2.7418738355880254
2.747565001683708
2.7519914932888163
2.75543057147826
2.7581123521561492
2.7602230068553655
2.761912220675528
2.763301275121713
2.764490607966416
2.76556654113648
2.7666072964817565
2.7676885906346786
2.7688891220902176
2.7702962469836727
2.7720121962580135
2.774161181365704
2.7768976237740173
2.780415650188387
2.7849594802972386
2.7908330850739635
2.798404163528418
2.8080881982820776
2.8202701755061956
2.835009396524237
2.8509863509942868
2.8567222450966945
4.592798439780917
4.595143781015499
4.600900193311186
4.608093139701987
4.614913306639539
4.62082644787303
4.6257457426790385
4.629753925773278
4.63298783724547
4.635591693576814
4.637699271750473
4.639428585831768
4.6408821127956585
4.642149406079596
4.643310636952487
4.644440478080265
4.645612124496734
4.646901392758639
4.64839093119771
4.650174552455824
4.6523615960154086
4.655081016794108
4.658484304529413
4.662745411565259
4.668053344266582
4.674588048808963
4.6824579117200305
4.691545305414241
4.701134961508038
4.708811692793646
4.7119394198575115
6.481852087226644
6.483100310461591
6.4864737695195185
6.491041432413918
6.495905808118117
6.500476663283994
6.50451105350446
6.5079515997880675
6.51083134173799
6.5132221815142355
6.515208877261325
6.5168766722850275
6.518306244407406
6.519572544306067
6.520745645972963
6.5218926516088
6.5230801402506335
6.524376844850422
6.525856354133504
6.527599600715479
6.529696749325722
6.532247799323451
6.535360538914854
6.539143469832197
6.543689010407363
6.549038478046804
6.5551131571432295
6.56158697026007
6.567670854726264
6.5721660310316325
6.573829618398279
8.3675276355073
8.368287957144418
8.370391783140557
8.373403977746463
8.37682092280975
8.38024087157332
8.383418489659924
8.386243064148264
8.388688988453723
8.390778391713372
8.392557466542756
8.394082715093077
8.395413649658469
8.39660947066753
8.397728086583882
8.398826496613237
8.39996192105723
8.401193235019019
8.40258236358325
8.404195257801605
8.406101923179826
8.40837469690943
8.411083405955035
8.41428534534052
8.418006673533512
8.42221055601475
8.426747185956728
8.431287504476817
8.435294141860542
8.438094147033812
8.439106326600236
10.250928217244956
10.251412527902334
10.252777948153474
10.254796494056547
10.257183167304527
10.259677657843834
10.262091171596182
10.26431303154609
10.266295421859036
10.268032858420193
10.269545504865077
10.270867619530707
10.27204038421626
10.273107913883752
10.274115366788394
10.275108380871592
10.276133273319964
10.277237547048705
10.278470323539809
10.279882285812013
10.2815245998936
10.283446091985667
10.28568760723054
10.288272220554196
10.291189617513487
10.29437361726258
10.297674697113255
10.300839470051796
10.303519499159076
10.305333707206348
10.3059774170686
12.13253992438906
12.132851944924784
12.133741372780722
12.13508377911328
12.136714813130478
12.138472057569295
12.140224463532991
12.141883839153184
12.14340242378701
12.144763887367612
12.145973483239453
12.1470499486096
12.148019783899269
12.148913646916322
12.149764318453258
12.150605739512685
12.151472693045509
12.152400744181879
12.153426098539342
12.154585010133523
12.155912297596675
12.157438429481873
12.159184485987728
12.161154367556927
12.163323836276492
12.165627217091272
12.167945326920709
12.170102114602045
12.171879985392694
12.17305901572763
12.173472807080532
14.012604014190865
14.012796686652173
14.013349943384528
14.014196527702959
14.015244536430435
14.016398451211481
14.017575972533235
14.01871685614723
14.019784318707721
14.020761724474914
14.02164757318433
14.022450646975406
14.023186186496373
14.023873247553638
14.024533045952113
14.025188026283594
14.02586138403667
14.026576768812854
14.027357918762345
14.028227957484432
14.029208048315512
14.030315069966996
14.03155794547667
14.032932440663899
14.034414589636985
14.035953900858177
14.037468896264848
14.038848903197096
14.039965838679988
14.04069662760333
14.040951265087868
15.891237878662592
15.891338764836439
15.891630081355704
15.89208068808106
15.892647108765638
15.8932826966359
15.893945519824717
15.89460314050659
15.895234133883923
15.89582720655152
15.89637916723268
15.896892668423188
15.897374262334244
15.897832956072634
15.898279232397037
15.89872443339765
15.899180379824191
15.899659083046865
15.90017241563012
15.900731596658204
15.901346335588975
15.902023478896021
15.902765013523982
15.903565428344223
15.904408652430394
15.905265292833402
15.906091439958951
15.90683064968014
15.90742031739616
15.907802175485195
15.907934522370592
17.76849762940552
17.76851918824248
17.768582561463546
17.768684078084263
17.768818338741994
17.7689790624439
17.76915992285295
17.76935519587405
17.7695601554349
17.769771218350105
17.769985915203023
17.770202750689236
17.77042101867903
17.770640613800175
17.77086185295421
17.771085312673534
17.771311681295078
17.77154161372097
17.77177557913378
17.77201369060174
17.77225550760881
17.77249981057591
17.772744350567613
17.772985609383063
17.77321861387085
17.773436892829693
17.773632673960442
17.77379740570879
17.773922624287543
17.774001065661807
17.77402779628057
17.87323683177387
17.873254695657362
17.87330740272169
17.87339243852674
17.8735060372646
17.873643699450316
17.87380073185099
17.873972700215344
17.87415574658713
17.8743467499354
17.87454336518733
17.874743968940276
17.874947553148953
17.875153598147534
17.875361937427208
17.875572623174982
17.875785796577485
17.8760015566778
17.8762198241297
17.8764401951163
17.876661783029032
17.876883052924015
17.87710165624336
17.87731429805809
17.877516667574827
17.877703488400456
17.877868737591022
17.87800606472085
17.878109399249926
17.878173668135823
17.878195487648984
17.977866632713894
17.97788173718547
17.97792643090231
17.977998939364973
17.978096565756157
17.97821601697624
17.97835375859615
17.978506330296312
17.978670588910425
17.97884385384155
17.979023970792525
17.979209302987773
17.979398674802326
17.97959128959137
17.979786630842625
17.979984355736466
17.98018418740826
17.980385803484236
17.980588721226624
17.98079217873274
17.980995013609217
17.981195546553693
17.981391477536803
17.98157982089786
17.981756898074448
17.981918422584496
17.982059699509332
17.982175946985144
17.982262720681252
17.982316385481855
17.9823345517496
18.08239226068337
18.082405255817783
18.082443794433907
18.082506589329128
18.08259166025979
18.082696544692794
18.08281853537697
18.08295490083199
18.083103067647528
18.083260741486473
18.083425974432114
18.083597178224867
18.08377309805963
18.083952761552737
18.084135408583165
18.08432040990123
18.08450718141868
18.084695093831566
18.084883380216894
18.085071043433118
18.08525676658279
18.085438834320243
18.085615071205197
18.085782817444997
18.08593895183135
18.08607998272799
18.086202215401677
18.086301993607204
18.08637599757839
18.08642155979077
18.086436947555264
18.18681762771635
18.18682897906161
18.186862702160383
18.186917838608327
18.18699289853589
18.187086000000612
18.18719503075614
18.187317803370576
18.187452190801075
18.187596222938954
18.187748148454524
18.18790645704622
18.1880698706887
18.188237313584537
18.188407863769136
18.188580692747447
18.188754999808594
18.188929941607114
18.189104560724196
18.189277716138026
18.189448019434543
18.189613783875977
18.189772990631056
18.18992328758359
18.190062024595846
18.19018633784936
18.190293284686682
18.19038002366518
18.190444025416962
18.190483287798262
18.190496523377078
18.291145677355022
18.29115572777886
18.29118562744149
18.291234644369823
18.291301630276287
18.2913851146558
18.29148341676647
18.29159475565808
18.291717350857205
18.291849497728045
18.29198962072999
18.292136297938725
18.292288261952958
18.292444383719037
18.29260364025279
18.29276507122322
18.292927730384804
18.293090632694522
18.293252701102777
18.293412716226413
18.29356927260176
18.29372074758816
18.29386528549763
18.2940008086543
18.29412505559446
18.29423565426106
18.2943302284973
18.294406532079364
18.294462599395903
18.294496894538693
18.294508438407746
18.3920279934312
18.392036995600186
18.392063805908833
18.392107851295002
18.392168225480084
18.392243753662644
18.392333071261795
18.39243470267819
18.392547136296304
18.392668882681065
18.392798518985316
18.39293471253762
18.393076226805473
18.393221914277742
18.393370695938255
18.393521531125167
18.393673382987117
18.39382518025247
18.393975779118488
18.394123928288316
18.394268240384143
18.39440717471623
18.39453903260938
18.394661974316094
18.3947740556027
18.394873289163037
18.394957727952864
18.395025565260468
18.39507524355247
18.39510555945659
18.39511575163729
18.486092267086544
18.486100408846546
18.48612467735765
18.486164613091745
18.48621948407891
18.486288331131682
18.48637002406243
18.48646331861389
18.48656691267557
18.48667949106148
18.48679976197867
18.48692647837945
18.487058446350314
18.487194523854598
18.487333608683585
18.487474618497913
18.487616467416274
18.487758039585835
18.48789816313651
18.48803558714889
18.488168964284093
18.4882968430708
18.488417670041958
18.48852980886175
18.488631573389945
18.488721278333855
18.488797304298103
18.488858172922704
18.488902626410123
18.48892970258533
18.488938796751256
18.573306538257796
18.57331396620622
18.57333612177519
18.573372627762605
18.5734228794796
18.573486076866704
18.573561265246564
18.57364737691547
18.573743273660806
18.573847781273347
18.573959719367775
18.57407792017408
18.57420123790553
18.574328551265832
18.574458757468598
18.57459075996018
18.57472345363274
18.574855707636278
18.574986348711292
18.575114147206943
18.575237807861544
18.57535596851679
18.575467206254977
18.57557005677411
18.575663043407854
18.575744718611876
18.57581371486047
18.57586880151253
18.575908943626615
18.57593335643646
18.575941549638696
18.653641837737972
18.653648668723985
18.653669054281607
18.65370267771008
18.65374902843599
18.653807425178186
18.653877045963295
18.65395695887439
18.654046154586855
18.654143573134196
18.65424812837419
18.654358724353706
18.654474264896145
18.65459365850787
18.654715816712695
18.654839647491112
18.654964047043595
18.655087889678658
18.655210018275444
18.655329237034284
18.65544430808681
18.655553954476424
18.655656868528588
18.655751730491335
18.65583723366076
18.65591211835837
18.655975211997784
18.656025472551576
18.65606203261911
18.65608423956445
18.656091687756454
18.727072066822107
18.727078395929183
18.727097291335163
18.72712848133884
18.72717152575425
18.727225832889076
18.72729068203298
18.72736524650044
18.727448618890822
18.727539832059772
18.727637879376196
18.727741728977193
18.727850333204067
18.727962635020745
18.728077569395886
18.72819406094541
18.72831102058742
18.728427340747714
18.728541891142026
18.728653516450283
18.728761037034065
18.728863254692126
18.728958962173003
18.729046960657797
18.72912608142822
18.729195213834547
18.729253337130984
18.729299554098326
18.72933312453499
18.729353495297627
18.72936032416738
18.79357388086628
18.793579787048586
18.793597425290443
18.79362655771222
18.793666797295174
18.793717620542367
18.793778384647204
18.793848345034483
18.793926675312914
18.79401248393789
18.79410483121136
18.794202741788308
18.794305213802783
18.7944112262227
18.794519742367967
18.794629710609147
18.794740064620903
18.794849722518475
18.79495758654395
18.795062544285173
18.79516347224298
18.795259243345626
18.79534873694599
18.795430855031526
18.795504540958806
18.79556880268449
18.79562273836884
18.795665562750273
18.79569663300062
18.79571547158765
18.79572178425326
18.85312696852333
18.853132518648675
18.85314909750059
18.8531764928354
18.853214358117846
18.85326222214445
18.85331950242852
18.853385518799307
18.853459509479606
18.853540644559317
18.85362804050206
18.853720771245282
18.853817876970403
18.85391837202102
18.85402124990483
18.85412548618949
18.854230041366456
18.85433386285027
18.85443588748624
18.854535045282795
18.854630264923088
18.854720482354953
18.854804650890696
18.854881756189076
18.854950832571944
18.855010982559456
18.85506139776919
18.855101379942646
18.855130361259082
18.85514792205498
18.855153804623495
18.905713182157765
18.905718433961066
18.90573412452706
18.90576006115406
18.905795928294324
18.90584129502947
18.90589562575203
18.905958290934873
18.906028580379754
18.906105714340153
18.9061888561353
18.90627712214218
18.9063695902201
18.906465307952832
18.906563298669514
18.906662565902224
18.906762098117078
18.906860872768696
18.906957860816604
18.907052032212114
18.907142362711937
18.90722784309205
18.907307489141044
18.90738035553697
18.907445550211115
18.907502251024564
18.907549723125257
18.90758733602537
18.907614579878775
18.90763107949517
18.907636605152902
18.95131739786855
18.951322402138477
18.951337355195356
18.95136207925759
18.951396282524076
18.951439565126396
18.951491427875816
18.951551281001578
18.951618455338245
18.951692211723966
18.951771752190353
18.951856229095085
18.95194475323781
18.952036402274512
18.952130227428675
18.952225259044706
18.95232051263572
18.95241499439157
18.952507707103734
18.952597656856657
18.952683860693956
18.9527653561656
18.95284121111406
18.95291053660054
18.952972499718836
18.953026338079667
18.953071374512678
18.9531070312314
18.953132843167936
18.953148469310996
18.953153701375737
18.98992644946658
18.9899312517036
18.98994560252435
18.9899693354855
18.990002176890904
18.990043750665595
18.990093585722068
18.990151123246918
18.990215726394464
18.990286688430466
18.990363242861154
18.99044457191077
18.99052981437582
18.990618074118753
18.99070842723882
18.990799928382966
18.99089161770697
18.990982527395047
18.991071688555518
18.99115813872356
18.9912409300716
18.99131913910913
18.991391876228757
18.99145829784444
18.991517617997214
18.99156912117858
18.991612175057927
18.99164624251191
18.99167089282134
18.99168581108061
18.991690805331963
19.021529750112144
19.021534391805968
19.0215482638858
19.02157120839906
19.021602965245584
19.021643176295758
19.021691391781278
19.021747076555968
19.02180961872107
19.021878336869158
19.02195248943697
19.02203128269405
19.022113878385614
19.022199402251758
19.022286951497545
19.022375601617863
19.02246441397887
19.02255244302752
19.022638743842403
19.02272238017091
19.022802432975844
19.02287801018364
19.022948255998333
19.023012362411215
19.023069579887704
19.023119228955697
19.02316071148776
19.023193521185092
19.0232172532396
19.023231612367795
19.023236418854918
19.04611878757423
19.046123307217872
19.04613681523961
19.046159159844134
19.046190090813308
19.046229263106856
19.046276242581115
19.04633051154339
19.046391476633772
19.04645847544213
19.046530785310388
19.04660763096954
19.046688192020326
19.046771611450694
19.04685700329499
19.046943459796587
19.04703005939882
19.04711587441043
19.04719997898531
19.047281457500937
19.047359413304335
19.047432978455582
19.047501322843328
19.047563665217023
19.047619283201954
19.04766752399986
19.047707814645413
19.04773967140345
19.047762708358732
19.04777664449358
19.047781308977285
19.063686923470375
19.063691357388556
19.06370460965161
19.063726532639407
19.063756882846427
19.06379532414759
19.063841433079766
19.06389470393697
19.063954556164642
19.0640203405656
19.064091347736152
19.064166815466372
19.064245936106882
19.064327865074276
19.06441172862334
19.064496631220155
19.064581663788
19.064665911657713
19.064748462813206
19.0648284164757
19.06490489196169
19.06497703840206
19.065044043707594
19.065105145267445
19.06515963950642
19.065206891988783
19.065246346991824
19.06527753618466
19.065300086512234
19.06531372664632
19.065318291781523
19.07422964426768
19.074234027316372
19.07424712779229
19.07426880049578
19.074298805817318
19.07433681281558
19.074382404252763
19.07443508143136
19.074494271312734
19.07455933249018
19.074629563415826
19.074704209664667
19.07478247123356
19.074863511035556
19.074946462731578
19.075030438217862
19.07511453601047
19.075197849351166
19.07527947459638
19.075358519910935
19.07543411418127
19.075505416712296
19.0755716261
19.07563199073252
19.07568581808166
19.07573248446291
19.0757714442184
19.075802237986586
19.075824500185725
19.075837965110026
19.07584247144705
19.077744175184478
19.077748541369534
19.077761591523647
19.07778318124027
19.07781307218729
19.077850935124545
19.077896354859654
19.077948835001582
19.078007804989724
19.07807262599185
19.078142599062925
19.07821697236443
19.07829494844116
19.078375692711152
19.07845834131572
19.078542008643176
19.078625795757244
19.078708798552093
19.078790116186738
19.078868859812808
19.0789441615044
19.07901518394615
19.079081129274613
19.079141249513892
19.07919485577998
19.079241327928706
19.079280123611476
19.07931078641208
19.079332953200478
19.079346360114005
19.079350846984745
