# vtk DataFile Version 2.0
Unstructured Grid Example
ASCII
DATASET UNSTRUCTURED_GRID

POINTS 961 float
0.400000004 0.01999999956 0
0.3866666556 0.01999999956 0
0.3733333348 0.01999999956 0
0.3600000144 0.01999999956 0
0.346666664 0.01999999956 0
0.3333333432 0.01999999956 0
0.3199999928 0.01999999956 0
0.3066666724 0.01999999956 0
0.293333322 0.01999999956 0
0.2800000012 0.01999999956 0
0.2666666804 0.01999999956 0
0.25333333 0.01999999956 0
0.2399999948 0.01999999956 0
0.226666674 0.01999999956 0
0.2133333384 0.01999999956 0
0.2000000028 0.01999999956 0
0.1866666676 0.01999999956 0
0.173333332 0.01999999956 0
0.1599999964 0.01999999956 0
0.1466666608 0.01999999956 0
0.1333333404 0.01999999956 0
0.1199999972 0.01999999956 0
0.1066666692 0.01999999956 0
0.0933333336 0.01999999956 0
0.0799999984 0.01999999956 0
0.06666667 0.01999999956 0
0.0533333348 0.01999999956 0
0.03999999912 0.01999999956 0
0.02666666732 0.01999999956 0
0.01333333364 0.01999999956 0
0.0 0.01999999956 0
0.400000004 0.00666666684 0
0.3866666556 0.00666666684 0
0.3733333348 0.00666666684 0
0.3600000144 0.00666666684 0
0.346666664 0.00666666684 0
0.3333333432 0.00666666684 0
0.3199999928 0.00666666684 0
0.3066666724 0.00666666684 0
0.293333322 0.00666666684 0
0.2800000012 0.00666666684 0
0.2666666804 0.00666666684 0
0.25333333 0.00666666684 0
0.2399999948 0.00666666684 0
0.226666674 0.00666666684 0
0.2133333384 0.00666666684 0
0.2000000028 0.00666666684 0
0.1866666676 0.00666666684 0
0.173333332 0.00666666684 0
0.1599999964 0.00666666684 0
0.1466666608 0.00666666684 0
0.1333333404 0.00666666684 0
0.1199999972 0.00666666684 0
0.1066666692 0.00666666684 0
0.0933333336 0.00666666684 0
0.0799999984 0.00666666684 0
0.06666667 0.00666666684 0
0.0533333348 0.00666666684 0
0.03999999912 0.00666666684 0
0.02666666732 0.00666666684 0
0.01333333364 0.00666666684 0
0.0 0.00666666684 0
0.400000004 -0.00666666684 0
0.3866666556 -0.00666666684 0
0.3733333348 -0.00666666684 0
0.3600000144 -0.00666666684 0
0.346666664 -0.00666666684 0
0.3333333432 -0.00666666684 0
0.3199999928 -0.00666666684 0
0.3066666724 -0.00666666684 0
0.293333322 -0.00666666684 0
0.2800000012 -0.00666666684 0
0.2666666804 -0.00666666684 0
0.25333333 -0.00666666684 0
0.2399999948 -0.00666666684 0
0.226666674 -0.00666666684 0
0.2133333384 -0.00666666684 0
0.2000000028 -0.00666666684 0
0.1866666676 -0.00666666684 0
0.173333332 -0.00666666684 0
0.1599999964 -0.00666666684 0
0.1466666608 -0.00666666684 0
0.1333333404 -0.00666666684 0
0.1199999972 -0.00666666684 0
0.1066666692 -0.00666666684 0
0.0933333336 -0.00666666684 0
0.0799999984 -0.00666666684 0
0.06666667 -0.00666666684 0
0.0533333348 -0.00666666684 0
0.03999999912 -0.00666666684 0
0.02666666732 -0.00666666684 0
0.01333333364 -0.00666666684 0
0.0 -0.00666666684 0
0.400000004 -0.01999999956 0
0.3866666556 -0.01999999956 0
0.3733333348 -0.01999999956 0
0.3600000144 -0.01999999956 0
0.346666664 -0.01999999956 0
0.3333333432 -0.01999999956 0
0.3199999928 -0.01999999956 0
0.3066666724 -0.01999999956 0
0.293333322 -0.01999999956 0
0.2800000012 -0.01999999956 0
0.2666666804 -0.01999999956 0
0.25333333 -0.01999999956 0
0.2399999948 -0.01999999956 0
0.226666674 -0.01999999956 0
0.2133333384 -0.01999999956 0
0.2000000028 -0.01999999956 0
0.1866666676 -0.01999999956 0
0.173333332 -0.01999999956 0
0.1599999964 -0.01999999956 0
0.1466666608 -0.01999999956 0
0.1333333404 -0.01999999956 0
0.1199999972 -0.01999999956 0
0.1066666692 -0.01999999956 0
0.0933333336 -0.01999999956 0
0.0799999984 -0.01999999956 0
0.06666667 -0.01999999956 0
0.0533333348 -0.01999999956 0
0.03999999912 -0.01999999956 0
0.02666666732 -0.01999999956 0
0.01333333364 -0.01999999956 0
0.0 -0.01999999956 0
0.400000004 -0.03333333508 0
0.3866666556 -0.03333333508 0
0.3733333348 -0.03333333508 0
0.3600000144 -0.03333333508 0
0.346666664 -0.03333333508 0
0.3333333432 -0.03333333508 0
0.3199999928 -0.03333333508 0
0.3066666724 -0.03333333508 0
0.293333322 -0.03333333508 0
0.2800000012 -0.03333333508 0
0.2666666804 -0.03333333508 0
0.25333333 -0.03333333508 0
0.2399999948 -0.03333333508 0
0.226666674 -0.03333333508 0
0.2133333384 -0.03333333508 0
0.2000000028 -0.03333333508 0
0.1866666676 -0.03333333508 0
0.173333332 -0.03333333508 0
0.1599999964 -0.03333333508 0
0.1466666608 -0.03333333508 0
0.1333333404 -0.03333333508 0
0.1199999972 -0.03333333508 0
0.1066666692 -0.03333333508 0
0.0933333336 -0.03333333508 0
0.0799999984 -0.03333333508 0
0.06666667 -0.03333333508 0
0.0533333348 -0.03333333508 0
0.03999999912 -0.03333333508 0
0.02666666732 -0.03333333508 0
0.01333333364 -0.03333333508 0
0.0 -0.03333333508 0
0.400000004 -0.0466666668 0
0.3866666556 -0.0466666668 0
0.3733333348 -0.0466666668 0
0.3600000144 -0.0466666668 0
0.346666664 -0.0466666668 0
0.3333333432 -0.0466666668 0
0.3199999928 -0.0466666668 0
0.3066666724 -0.0466666668 0
0.293333322 -0.0466666668 0
0.2800000012 -0.0466666668 0
0.2666666804 -0.0466666668 0
0.25333333 -0.0466666668 0
0.2399999948 -0.0466666668 0
0.226666674 -0.0466666668 0
0.2133333384 -0.0466666668 0
0.2000000028 -0.0466666668 0
0.1866666676 -0.0466666668 0
0.173333332 -0.0466666668 0
0.1599999964 -0.0466666668 0
0.1466666608 -0.0466666668 0
0.1333333404 -0.0466666668 0
0.1199999972 -0.0466666668 0
0.1066666692 -0.0466666668 0
0.0933333336 -0.0466666668 0
0.0799999984 -0.0466666668 0
0.06666667 -0.0466666668 0
0.0533333348 -0.0466666668 0
0.03999999912 -0.0466666668 0
0.02666666732 -0.0466666668 0
0.01333333364 -0.0466666668 0
0.0 -0.0466666668 0
0.400000004 -0.0599999988 0
0.3866666556 -0.0599999988 0
0.3733333348 -0.0599999988 0
0.3600000144 -0.0599999988 0
0.346666664 -0.0599999988 0
0.3333333432 -0.0599999988 0
0.3199999928 -0.0599999988 0
0.3066666724 -0.0599999988 0
0.293333322 -0.0599999988 0
0.2800000012 -0.0599999988 0
0.2666666804 -0.0599999988 0
0.25333333 -0.0599999988 0
0.2399999948 -0.0599999988 0
0.226666674 -0.0599999988 0
0.2133333384 -0.0599999988 0
0.2000000028 -0.0599999988 0
0.1866666676 -0.0599999988 0
0.173333332 -0.0599999988 0
0.1599999964 -0.0599999988 0
0.1466666608 -0.0599999988 0
0.1333333404 -0.0599999988 0
0.1199999972 -0.0599999988 0
0.1066666692 -0.0599999988 0
0.0933333336 -0.0599999988 0
0.0799999984 -0.0599999988 0
0.06666667 -0.0599999988 0
0.0533333348 -0.0599999988 0
0.03999999912 -0.0599999988 0
0.02666666732 -0.0599999988 0
0.01333333364 -0.0599999988 0
0.0 -0.0599999988 0
0.400000004 -0.0733333304 0
0.3866666556 -0.0733333304 0
0.3733333348 -0.0733333304 0
0.3600000144 -0.0733333304 0
0.346666664 -0.0733333304 0
0.3333333432 -0.0733333304 0
0.3199999928 -0.0733333304 0
0.3066666724 -0.0733333304 0
0.293333322 -0.0733333304 0
0.2800000012 -0.0733333304 0
0.2666666804 -0.0733333304 0
0.25333333 -0.0733333304 0
0.2399999948 -0.0733333304 0
0.226666674 -0.0733333304 0
0.2133333384 -0.0733333304 0
0.2000000028 -0.0733333304 0
0.1866666676 -0.0733333304 0
0.173333332 -0.0733333304 0
0.1599999964 -0.0733333304 0
0.1466666608 -0.0733333304 0
0.1333333404 -0.0733333304 0
0.1199999972 -0.0733333304 0
0.1066666692 -0.0733333304 0
0.0933333336 -0.0733333304 0
0.0799999984 -0.0733333304 0
0.06666667 -0.0733333304 0
0.0533333348 -0.0733333304 0
0.03999999912 -0.0733333304 0
0.02666666732 -0.0733333304 0
0.01333333364 -0.0733333304 0
0.0 -0.0733333304 0
0.400000004 -0.086666666 0
0.3866666556 -0.086666666 0
0.3733333348 -0.086666666 0
0.3600000144 -0.086666666 0
0.346666664 -0.086666666 0
0.3333333432 -0.086666666 0
0.3199999928 -0.086666666 0
0.3066666724 -0.086666666 0
0.293333322 -0.086666666 0
0.2800000012 -0.086666666 0
0.2666666804 -0.086666666 0
0.25333333 -0.086666666 0
0.2399999948 -0.086666666 0
0.226666674 -0.086666666 0
0.2133333384 -0.086666666 0
0.2000000028 -0.086666666 0
0.1866666676 -0.086666666 0
0.173333332 -0.086666666 0
0.1599999964 -0.086666666 0
0.1466666608 -0.086666666 0
0.1333333404 -0.086666666 0
0.1199999972 -0.086666666 0
0.1066666692 -0.086666666 0
0.0933333336 -0.086666666 0
0.0799999984 -0.086666666 0
0.06666667 -0.086666666 0
0.0533333348 -0.086666666 0
0.03999999912 -0.086666666 0
0.02666666732 -0.086666666 0
0.01333333364 -0.086666666 0
0.0 -0.086666666 0
0.400000004 -0.1000000016 0
0.3866666556 -0.1000000016 0
0.3733333348 -0.1000000016 0
0.3600000144 -0.1000000016 0
0.346666664 -0.1000000016 0
0.3333333432 -0.1000000016 0
0.3199999928 -0.1000000016 0
0.3066666724 -0.1000000016 0
0.293333322 -0.1000000016 0
0.2800000012 -0.1000000016 0
0.2666666804 -0.1000000016 0
0.25333333 -0.1000000016 0
0.2399999948 -0.1000000016 0
0.226666674 -0.1000000016 0
0.2133333384 -0.1000000016 0
0.2000000028 -0.1000000016 0
0.1866666676 -0.1000000016 0
0.173333332 -0.1000000016 0
0.1599999964 -0.1000000016 0
0.1466666608 -0.1000000016 0
0.1333333404 -0.1000000016 0
0.1199999972 -0.1000000016 0
0.1066666692 -0.1000000016 0
0.0933333336 -0.1000000016 0
0.0799999984 -0.1000000016 0
0.06666667 -0.1000000016 0
0.0533333348 -0.1000000016 0
0.03999999912 -0.1000000016 0
0.02666666732 -0.1000000016 0
0.01333333364 -0.1000000016 0
0.0 -0.1000000016 0
0.400000004 -0.1133333372 0
0.3866666556 -0.1133333372 0
0.3733333348 -0.1133333372 0
0.3600000144 -0.1133333372 0
0.346666664 -0.1133333372 0
0.3333333432 -0.1133333372 0
0.3199999928 -0.1133333372 0
0.3066666724 -0.1133333372 0
0.293333322 -0.1133333372 0
0.2800000012 -0.1133333372 0
0.2666666804 -0.1133333372 0
0.25333333 -0.1133333372 0
0.2399999948 -0.1133333372 0
0.226666674 -0.1133333372 0
0.2133333384 -0.1133333372 0
0.2000000028 -0.1133333372 0
0.1866666676 -0.1133333372 0
0.173333332 -0.1133333372 0
0.1599999964 -0.1133333372 0
0.1466666608 -0.1133333372 0
0.1333333404 -0.1133333372 0
0.1199999972 -0.1133333372 0
0.1066666692 -0.1133333372 0
0.0933333336 -0.1133333372 0
0.0799999984 -0.1133333372 0
0.06666667 -0.1133333372 0
0.0533333348 -0.1133333372 0
0.03999999912 -0.1133333372 0
0.02666666732 -0.1133333372 0
0.01333333364 -0.1133333372 0
0.0 -0.1133333372 0
0.400000004 -0.1266666652 0
0.3866666556 -0.1266666652 0
0.3733333348 -0.1266666652 0
[...]
POINT_DATA 961
SCALARS Temp float 1
LOOKUP_TABLE default
0.7259583961591167
0.7549534057925529
0.775761281961914
0.7908906771066679
0.80197614121717
0.8101385215273436
0.8161757911711507
0.8206623002883646
0.8240160838473263
0.8265434406327209
0.8284714644980593
0.8299706016283813
0.8311711083971934
0.8321758599436735
0.8330699071585774
0.8339280580854637
0.8348218203494366
0.8358257830498678
0.8370243212946858
0.8385192663156682
0.8404392465317546
0.84295198551876
0.8462799782456292
0.8507227643314083
0.8566868303296519
0.8647280463900702
0.8756121260889427
0.8904030778918565
0.9105979344056668
0.9383693236887088
0.9771635817313848
0.7662352905110149
0.7946669438646676
0.8152513288645802
0.8302979089465193
0.8413453081560098
0.8494920633225196
0.8555246265757878
0.8600118647953363
0.8633689477345647
0.865900683303609
0.8678333998875629
0.869337183559231
0.870542163253145
0.8715512113312693
0.872449445189473
0.8733117801576118
0.8742098460198137
0.8752183533889906
0.8764217799061012
0.8779220134381746
0.8798476504929132
0.8823662125665253
0.8856996989669121
0.8901466113792712
0.8961114267198176
0.9041461868113467
0.9150092489904164
0.9297494158825466
0.9498320610353208
0.9773203051166577
1.0152024145396554
2.651961909009085
2.656185887656275
2.6679582357218914
2.6788159022323064
2.687794344209923
2.6949378797480916
2.700531105597509
2.7048812559599473
2.708260849739618
2.7108960678702214
2.712969899489894
2.7146294722737
2.715993996899595
2.717162197434075
2.718218923961987
2.719241065272013
2.720303047817037
2.721482228735101
2.722864474333146
2.7245502706925167
2.7266617076054533
2.729350567088032
2.7328076559843746
2.737273015855586
2.743045416031957
2.750486262581321
2.76000392758469
2.7719768109948553
2.7864632106730225
2.8021662402999654
2.8078037947000407
4.514187488246105
4.516492587738192
4.5221501917788745
4.529219585909253
4.535922451595734
4.541733701659807
4.546568011898902
4.550506709794705
4.553684301756061
4.556242544563664
4.558312934670912
4.560011475995783
4.561438901876266
4.5626832438007465
4.563823312043662
4.5649325126198494
4.566082799263182
4.567348702249475
4.568811466413109
4.570563309361293
4.572711709191104
4.57538342298811
4.5787273562083834
4.582914491753858
4.588130608463471
4.594552580274616
4.602286947884393
4.611218110934822
4.62064306875204
4.628188027477291
4.6312620832001725
6.3709129136132265
6.372139660171955
6.375455048574237
6.379943997328557
6.38472439424191
6.389216124540987
6.3931804159671275
6.396560884663198
6.399390017738873
6.401738500180365
6.40368965362443
6.405327277356508
6.40673068409097
6.4079735580767405
6.4091247908510605
6.410250353358403
6.4114157024599585
6.412688411985249
6.414140828140786
6.415852514849483
6.4179121094962905
6.420417915013045
6.423475889099294
6.427192690091146
6.431659167862394
6.436915946333368
6.442885672499418
6.449247869198501
6.45522700579728
6.45964485302946
6.461279832726489
8.224319401447804
8.225066576622282
8.227133998833255
8.2300939900364
8.233451565768814
8.236811870908578
8.23993378609966
8.242708509719945
8.245110890536278
8.247162696988026
8.248909350207114
8.250406405500977
8.25171237782564
8.252885476470382
8.253982641540745
8.25505991990158
8.256173575928837
8.257381500425712
8.258744581675497
8.260327664492232
8.262199578027149
8.264431442336475
8.267091909306718
8.270237312518738
8.273893381326822
8.278023930165443
8.282481735449975
8.286943391237795
8.290880747912363
8.293632394828007
8.294627103295664
10.075491522952897
10.075967387149436
10.07730896875084
10.079292194171911
10.08163695548777
10.084087413438915
10.086458022788737
10.088640020067672
10.090586428680629
10.09229188084828
10.093776219131072
10.095073141036444
10.09622315037888
10.097269635043856
10.098257009213652
10.099230159139447
10.100234638971596
10.101317168269142
10.10252605712795
10.10391114984277
10.105522764593264
10.107408918711918
10.109609783907814
10.112148064607698
10.115013646249222
10.118141503171051
10.121384693710523
10.1244941890582
10.127127536239541
10.128910197871368
10.129542723735842
11.924907364963211
11.925213861280708
11.926087517318459
11.927406041683664
11.929007908830751
11.93073349745266
11.932454020887112
11.934082818749033
11.93557297235361
11.936908457976676
11.93809446802177
11.939149449912302
11.94009948312937
11.940974734785737
11.9418074597226
11.942631053881525
11.94347974110812
11.944388514035499
11.945392994449437
11.946528850980878
11.947830340402396
11.949327442527022
11.9510409079779
11.952974599964685
11.955104723191806
11.957366752651634
11.959643569270948
11.96176215710406
11.96350866488933
11.96466694849998
11.965073467429141
13.772804359253819
13.772993521476355
13.773536673969819
13.774367719108357
13.775396339512376
13.776528668970862
13.777683837870288
13.778802658024192
13.779849003894357
13.78080655576505
13.781673873074006
13.782459624117356
13.783178827287884
13.783850252563152
13.784494794274142
13.785134555425813
13.785792377526226
13.786491548436318
13.787255442616853
13.788106829629868
13.789066551055747
13.79015123552386
13.79136969020317
13.792717787972531
13.794172005243919
13.795682744084733
13.797169947432453
13.798524859986575
13.79962161023395
13.800339244188628
13.80058930665828
15.619298178171922
15.61939709429792
15.619682697624567
15.620124389394356
15.620679451255521
15.62130205370035
15.62195100618032
15.622594454143728
15.623211371639531
15.623790694476314
15.624329325274354
15.624829913385884
15.625298943708149
15.625745316094616
15.626179382384489
15.626612340143417
15.627055857959942
15.62752179180611
15.628021860717105
15.628567140401877
15.62916722125052
15.62982887764168
15.630554105165583
15.631337526793581
15.632163383212085
15.633002817515255
15.633812700674081
15.634537579346787
15.635115940401388
15.635490528227834
15.635620364053178
17.464444245810483
17.464465159433757
17.46452662235464
17.464625035479514
17.464755106834247
17.464910683663078
17.465085574131866
17.465274183578618
17.465471903122104
17.465675251709506
17.465881846998627
17.46609026762932
17.466299870958622
17.466510607272312
17.466722843777248
17.46693720416705
17.467154422685255
17.467375200750272
17.467600056650394
17.467829157443038
17.468062124261056
17.468297810079957
17.46853405318924
17.468767440810634
17.468993126124467
17.4692047854399
17.469394811358956
17.469554825328036
17.469676529496994
17.469752799410447
17.469778795191523
17.56739214223924
17.56740942075011
17.567460389901647
17.567542587442386
17.56765232715138
17.567785207515414
17.567936642149505
17.568102304526636
17.56827843945909
17.56846202063873
17.568650788497052
17.568843196377284
17.569038305541127
17.56923565975952
17.56943515181758
17.569636890771513
17.56984107382278
17.57004785678925
17.57025721955584
17.570468821861937
17.570681847077328
17.570894838868988
17.571105538222817
17.571310752369886
17.571506286007384
17.571686990227253
17.571846977394106
17.57198003268125
17.57208021072236
17.572142540686503
17.572163706066657
17.670233213709178
17.67024777360774
17.670290847342464
17.670360700134694
17.67045469678557
17.670569621978228
17.670702028885415
17.670848548955604
17.671006130388548
17.67117218071504
17.671344628920313
17.671521916335934
17.671702940721502
17.671886974881318
17.672073568907265
17.672262444963255
17.67245339072622
17.672646149184068
17.672840305095267
17.673035167573865
17.67322965021167
17.673422156013267
17.67361047481219
17.673791718872867
17.67396231525681
17.67411808886273
17.674254458064567
17.67436675033456
17.674450619133694
17.67450250726646
17.674520075493863
17.77297261239661
17.77298508953761
17.773022085051295
17.77308234341568
17.773163934239133
17.773264459249063
17.773381285520667
17.773511761931942
17.77365339792257
17.773803982068234
17.773961647742453
17.774124885630766
17.774292517447336
17.77446364513515
17.774637581286278
17.774813768525703
17.774991694580173
17.77517080277982
17.775350400562232
17.7755295677875
17.77570706808229
17.775881270832066
17.77605009002723
17.77621095979412
17.776360856433833
17.77649638734838
17.776613955063297
17.77670999430178
17.776781264545114
17.776825160132688
17.77683998783299
17.87561420263039
17.875625051401162
17.87565727580704
17.87570994390211
17.87578160794745
17.875870441256883
17.87597439691079
17.876091359950184
17.876219280194377
17.876356266761732
17.876500648301366
17.876650994344864
17.876806106152447
17.87696498651136
17.877126791520475
17.87729077061533
17.877456201288634
17.877622319179192
17.877788247151706
17.877952926256757
17.87811505235284
17.87827302535421
17.87842491545065
17.878568461281596
17.878701104067737
17.878820069981867
17.87892250221935
17.87900563757915
17.879067013372186
17.879104678621175
17.879117378147683
17.97816090306354
17.978170457137
17.97819887559325
17.97824544955598
17.978309067872676
17.978388309433218
17.978481552934333
17.978587084743214
17.978703197401714
17.978828263307587
17.978960786478254
17.97909942610965
17.979242996887773
17.979390452388255
17.97954085266851
17.979693320916084
17.979846994956205
17.98000097453938
17.980154268301433
17.980305743559896
17.980454082598463
17.980597751372834
17.980734983291384
17.98086378939485
17.98098199534561
17.981087312814765
17.981177443665263
17.981250211279338
17.98130370829948
17.98133644288726
17.98134746345251
18.07732797531054
18.07733648190022
18.077361812551615
18.077403415130235
18.077460417262046
18.07753168974428
18.07761592362684
18.077711707330273
18.077817599884032
18.07793218771805
18.078054127698376
18.078182169741055
18.078315162063834
18.07845204345194
18.07859182236514
18.07873354659869
18.07887626853445
18.07901900679064
18.079160707981575
18.07930021157499
18.07943622103792
18.07956728613064
18.079691797658203
18.079808003365645
18.079914043310282
18.080008009639222
18.080088027983347
18.080152355381884
18.080199486886837
18.080228258454433
18.08023793310606
18.169806881292537
18.16981452623814
18.16983731088325
18.169874795196215
18.169926278975858
18.169990846118793
18.170067419546942
18.170154816856122
18.170251805068954
18.170357144219338
18.170469622557636
18.170588076941645
18.170711400444812
18.170838540348008
18.170968485545764
18.171100246181716
18.171232829804346
18.171365214579236
18.17149632287027
18.17162499778635
18.17174998531553
18.171869925936825
18.171983356033657
18.17208872592962
18.17218443177079
18.172268864697575
18.1723404742423
18.17239784172758
18.17243975803599
18.172465297077395
18.1724738763654
18.25556532411117
18.255572252747463
18.255592916627528
18.255626957108785
18.25567379987399
18.255732686308153
18.25580271321354
18.25588287337032
18.255972096805433
18.256069284271046
18.256173335890207
18.256283169007222
18.256397726732708
18.25651597960423
18.256636918926336
18.256759543925394
18.25688284634757
18.2570057927207
18.257127307119074
18.257246256571143
18.257361441171174
18.257471591973925
18.25757537631085
18.25767141603726
18.257758315413135
18.25783470124031
18.257899272326334
18.25795085490458
18.257988460029825
18.25801133680084
18.258019015660597
18.334573393835974
18.334579722281372
18.33459860625172
18.33462974700161
18.334672663432414
18.334726714664917
18.334791129189473
18.334865034758838
18.334947489828522
18.335037509406348
18.335134088412364
18.335236217122628
18.335342889906734
18.335453109218133
18.33556588314743
18.3356802181677
18.335795110139067
18.33590953349477
18.336022430982393
18.33613270565731
18.336239216693567
18.3363407814405
18.3364361829068
18.33652418725623
18.336603567836434
18.336673137911937
18.336731789462647
18.336778535416638
18.336812552535946
18.336833220535006
18.336840153531426
18.406803511933738
18.40680933492241
18.40682671787337
18.406855406660934
18.406894990015246
18.40694491600877
18.40700451379771
18.40707301593128
18.407149582624836
18.407233321900513
18.40732330878925
18.40741859868133
18.407518235894052
18.407621259122376
18.407726701962424
18.407833589762767
18.407940935408476
18.408047733705658
18.40815295632298
18.408255548596074
18.40835442934776
18.408448495643814
18.408536631375643
18.408617723591156
18.408690683103625
18.408754471296547
18.408808130812798
18.408850818095946
18.408881835866442
18.408900662305026
18.408906974265264
18.472230400997827
18.47223579740718
18.472251912148586
18.472278524688495
18.472315276592646
18.47236168376393
18.472417152945752
18.47248099861523
18.47255246202506
18.47263072709735
18.472714936405456
18.47280420278873
18.47289761759667
18.47299425703681
18.47309318477517
18.4731934517686
18.473294095560323
18.473394138503217
18.473492586513032
18.473588429331503
18.473680643122613
18.473768196931825
18.473850061723414
18.473925225436147
18.473992710689412
18.474051596912844
18.474101044893438
18.47414032217838
18.47416882803399
18.47418611556416
18.47419190912888
18.530831461654053
18.53083649846782
18.53085154315655
18.530876400692836
18.53091075294439
18.530954167921834
18.53100611255516
18.531065965704894
18.53113303338261
18.53120656149943
18.531285749380903
18.531369759983956
18.531457727774672
18.53154876560962
18.531641968774636
18.531736416956804
18.531831176083163
18.531925299335647
18.532017828655114
18.53210779745224
18.53219423509306
18.532276174392784
18.5323526607348
18.532422765898094
18.532485603369686
18.53254034682455
18.53258625003388
18.53262266699885
18.53264907145184
18.532665073911456
18.53267043498773
18.58258603246356
18.58259076766653
18.582604914178813
18.582628296449762
18.58266062724982
18.58270151480329
18.58275047290045
18.58280693112077
18.582870247261845
18.582939717767886
18.583014589370233
18.583094068201618
18.58317732732
18.58326351389039
18.5833517542078
18.583441157186844
18.583530818015994
18.58361982117339
18.583707243885577
18.583792160543425
18.583873648448062
18.58395079589855
18.584022711189427
18.584088535333382
18.584147455439215
18.58419872036711
18.58424165714231
18.58427568719637
18.584300341891467
18.58431527592611
18.584320277699405
18.627476360041282
18.627480844762534
18.627494244910668
18.627516399830135
18.62754704601294
18.627585822730843
18.62763228023995
18.62768588800193
18.6277460450775
18.62781208885198
18.627883305263552
18.62795893706162
18.628038191014753
18.62812024524661
18.628204254922526
18.628289356801208
18.62837467416639
18.628459321254862
18.628542408082833
18.628623046028945
18.62870035440186
18.628773468838727
18.628841550084804
18.628903795765893
18.628959452229964
18.629007828035
18.629048307741773
18.6290803652831
18.629103576587426
18.629117630347952
18.629122336276
18.665486676642352
18.66549095678184
18.665503747045683
18.66552489811511
18.66555416459593
18.665591209588293
18.665635611528963
18.665686870981066
18.66574441955149
18.665807627376687
18.665875812298008
18.665948247466652
18.66602416828398
18.66610277980295
18.666183262853878
18.66626477932825
18.666346477994068
18.66642749990438
18.666506984163806
18.666584074295116
18.666657925327897
18.666727712333124
18.666792638954757
18.666851948394424
18.666904934054784
18.666950951384106
18.66698942971892
18.667019883546235
18.667041923019152
18.667055262824828
18.66705972892489
18.696603936061944
18.6966080535455
18.69662035873287
18.69664071080656
18.696668877993556
18.69670454138992
18.696747300840148
18.69679668071481
18.696852137771486
18.696913067750778
18.696978813780458
18.697048673492077
18.697121905745302
18.69719773804396
18.697275372946127
18.697353993842736
18.6974327713715
18.697510869492245
18.697587451886232
18.697661688836536
18.69773276463613
18.697799886158755
18.69786229115269
18.69791925859675
18.69797011843191
18.69801426218329
18.698051153374593
18.698080337265033
18.698101449850782
18.698114225376592
18.69811850200161
18.720817432725323
18.720821426503186
18.720833362670287
18.720853106581057
18.720880436374017
18.720915046286088
18.72095655186824
18.721004495065856
18.721058351343906
18.721117535662678
18.72118141033444
18.72124929178837
18.72132045712913
18.721394151543336
18.72146959488757
18.72154598779151
18.721622518465278
18.72169836921457
18.721772723252666
18.721844771907545
18.721913722217472
18.721978805488327
18.7220392853849
18.722094467809473
18.722143709966225
18.722186430103967
18.722222116916686
18.722250338207306
18.7222707488308
18.7222830972627
18.722287230520536
18.73811870664847
18.738122613513756
18.73813429036504
18.73815360674554
18.738180347532314
18.738214215920216
18.73825483820549
18.738301768412796
18.738354494937674
18.73841244611537
18.73847499771291
18.738541479457393
18.738611181477847
18.73868336169429
18.738757252511476
18.738832067123234
18.738907006564347
18.738981266499593
18.739054044290782
18.739124546400017
18.73919199608921
18.739255641947373
18.739314765829086
18.739368692399168
18.739416797742393
18.739458518514912
18.739493360669364
18.739520907408945
18.739540826433895
18.739552875891594
18.739556908811462
18.748501875589838
18.74850573087207
18.748517253798465
18.748536316342058
18.748562707293264
18.748596135058516
18.7486362322006
18.748682559810373
18.74873461387621
18.748791830622082
18.748853593791456
18.74891924103899
18.748988070303106
18.74905934718087
18.749132311676828
18.749206184616437
18.74928017483055
18.7493534860936
18.749425324328023
18.74949490511141
18.74956146142668
18.749624252163834
18.749682569963994
18.74973575056647
18.7497831811544
18.749824309165515
18.749858650630756
18.74988579772415
18.749905425613818
18.74991729806186
18.749921271584377
18.75196331834455
18.751967156525136
18.751978628416737
18.751997606788784
18.752023881715175
18.752057163313157
18.75209708620503
18.75214321380771
18.752195044613508
18.75225201745384
18.752313518715198
18.752378888686174
18.752447427907306
18.752518404540417
18.752591061134503
18.752664621073727
18.752738295803745
18.752811291817096
18.75288281790101
18.752952092676754
18.753018352365054
18.753080859277897
18.753138909630845
18.75319184282462
18.753239049704135
18.7532799812581
18.753314156831866
18.75334117154592
18.753360703018828
18.7533725168537
18.75337647070936
