# vtk DataFile Version 2.0
Unstructured Grid Example
ASCII
DATASET UNSTRUCTURED_GRID

POINTS 961 float
0.400000004 0.01999999956 0
0.3866666556 0.01999999956 0
0.3733333348 0.01999999956 0
0.3600000144 0.01999999956 0
0.346666664 0.01999999956 0
0.3333333432 0.01999999956 0
0.3199999928 0.01999999956 0
0.3066666724 0.01999999956 0
0.293333322 0.01999999956 0
0.2800000012 0.01999999956 0
0.2666666804 0.01999999956 0
0.25333333 0.01999999956 0
0.2399999948 0.01999999956 0
0.226666674 0.01999999956 0
0.2133333384 0.01999999956 0
0.2000000028 0.01999999956 0
0.1866666676 0.01999999956 0
0.173333332 0.01999999956 0
0.1599999964 0.01999999956 0
0.1466666608 0.01999999956 0
0.1333333404 0.01999999956 0
0.1199999972 0.01999999956 0
0.1066666692 0.01999999956 0
0.0933333336 0.01999999956 0
0.0799999984 0.01999999956 0
0.06666667 0.01999999956 0
0.0533333348 0.01999999956 0
0.03999999912 0.01999999956 0
0.02666666732 0.01999999956 0
0.01333333364 0.01999999956 0
0.0 0.01999999956 0
0.400000004 0.00666666684 0
0.3866666556 0.00666666684 0
0.3733333348 0.00666666684 0
0.3600000144 0.00666666684 0
0.346666664 0.00666666684 0
0.3333333432 0.00666666684 0
0.3199999928 0.00666666684 0
0.3066666724 0.00666666684 0
0.293333322 0.00666666684 0
0.2800000012 0.00666666684 0
0.2666666804 0.00666666684 0
0.25333333 0.00666666684 0
0.2399999948 0.00666666684 0
0.226666674 0.00666666684 0
0.2133333384 0.00666666684 0
0.2000000028 0.00666666684 0
0.1866666676 0.00666666684 0
0.173333332 0.00666666684 0
0.1599999964 0.00666666684 0
0.1466666608 0.00666666684 0
0.1333333404 0.00666666684 0
0.1199999972 0.00666666684 0
0.1066666692 0.00666666684 0
0.0933333336 0.00666666684 0
0.0799999984 0.00666666684 0
0.06666667 0.00666666684 0
0.0533333348 0.00666666684 0
0.03999999912 0.00666666684 0
0.02666666732 0.00666666684 0
0.01333333364 0.00666666684 0
0.0 0.00666666684 0
0.400000004 -0.00666666684 0
0.3866666556 -0.00666666684 0
0.3733333348 -0.00666666684 0
0.3600000144 -0.00666666684 0
0.346666664 -0.00666666684 0
0.3333333432 -0.00666666684 0
0.3199999928 -0.00666666684 0
0.3066666724 -0.00666666684 0
0.293333322 -0.00666666684 0
0.2800000012 -0.00666666684 0
0.2666666804 -0.00666666684 0
0.25333333 -0.00666666684 0
0.2399999948 -0.00666666684 0
0.226666674 -0.00666666684 0
0.2133333384 -0.00666666684 0
0.2000000028 -0.00666666684 0
0.1866666676 -0.00666666684 0
0.173333332 -0.00666666684 0
0.1599999964 -0.00666666684 0
0.1466666608 -0.00666666684 0
0.1333333404 -0.00666666684 0
0.1199999972 -0.00666666684 0
0.1066666692 -0.00666666684 0
0.0933333336 -0.00666666684 0
0.0799999984 -0.00666666684 0
0.06666667 -0.00666666684 0
0.0533333348 -0.00666666684 0
0.03999999912 -0.00666666684 0
0.02666666732 -0.00666666684 0
0.01333333364 -0.00666666684 0
0.0 -0.00666666684 0
0.400000004 -0.01999999956 0
0.3866666556 -0.01999999956 0
0.3733333348 -0.01999999956 0
0.3600000144 -0.01999999956 0
0.346666664 -0.01999999956 0
0.3333333432 -0.01999999956 0
0.3199999928 -0.01999999956 0
0.3066666724 -0.01999999956 0
0.293333322 -0.01999999956 0
0.2800000012 -0.01999999956 0
0.2666666804 -0.01999999956 0
0.25333333 -0.01999999956 0
0.2399999948 -0.01999999956 0
0.226666674 -0.01999999956 0
0.2133333384 -0.01999999956 0
0.2000000028 -0.01999999956 0
0.1866666676 -0.01999999956 0
0.173333332 -0.01999999956 0
0.1599999964 -0.01999999956 0
0.1466666608 -0.01999999956 0
0.1333333404 -0.01999999956 0
0.1199999972 -0.01999999956 0
0.1066666692 -0.01999999956 0
0.0933333336 -0.01999999956 0
0.0799999984 -0.01999999956 0
0.06666667 -0.01999999956 0
0.0533333348 -0.01999999956 0
0.03999999912 -0.01999999956 0
0.02666666732 -0.01999999956 0
0.01333333364 -0.01999999956 0
0.0 -0.01999999956 0
0.400000004 -0.03333333508 0
0.3866666556 -0.03333333508 0
0.3733333348 -0.03333333508 0
0.3600000144 -0.03333333508 0
0.346666664 -0.03333333508 0
0.3333333432 -0.03333333508 0
0.3199999928 -0.03333333508 0
0.3066666724 -0.03333333508 0
0.293333322 -0.03333333508 0
0.2800000012 -0.03333333508 0
0.2666666804 -0.03333333508 0
0.25333333 -0.03333333508 0
0.2399999948 -0.03333333508 0
0.226666674 -0.03333333508 0
0.2133333384 -0.03333333508 0
0.2000000028 -0.03333333508 0
0.1866666676 -0.03333333508 0
0.173333332 -0.03333333508 0
0.1599999964 -0.03333333508 0
0.1466666608 -0.03333333508 0
0.1333333404 -0.03333333508 0
0.1199999972 -0.03333333508 0
0.1066666692 -0.03333333508 0
0.0933333336 -0.03333333508 0
0.0799999984 -0.03333333508 0
0.06666667 -0.03333333508 0
0.0533333348 -0.03333333508 0
0.03999999912 -0.03333333508 0
0.02666666732 -0.03333333508 0
0.01333333364 -0.03333333508 0
0.0 -0.03333333508 0
0.400000004 -0.0466666668 0
0.3866666556 -0.0466666668 0
0.3733333348 -0.0466666668 0
0.3600000144 -0.0466666668 0
0.346666664 -0.0466666668 0
0.3333333432 -0.0466666668 0
0.3199999928 -0.0466666668 0
0.3066666724 -0.0466666668 0
0.293333322 -0.0466666668 0
0.2800000012 -0.0466666668 0
0.2666666804 -0.0466666668 0
0.25333333 -0.0466666668 0
0.2399999948 -0.0466666668 0
0.226666674 -0.0466666668 0
0.2133333384 -0.0466666668 0
0.2000000028 -0.0466666668 0
0.1866666676 -0.0466666668 0
0.173333332 -0.0466666668 0
0.1599999964 -0.0466666668 0
0.1466666608 -0.0466666668 0
0.1333333404 -0.0466666668 0
0.1199999972 -0.0466666668 0
0.1066666692 -0.0466666668 0
0.0933333336 -0.0466666668 0
0.0799999984 -0.0466666668 0
0.06666667 -0.0466666668 0
0.0533333348 -0.0466666668 0
0.03999999912 -0.0466666668 0
0.02666666732 -0.0466666668 0
0.01333333364 -0.0466666668 0
0.0 -0.0466666668 0
0.400000004 -0.0599999988 0
0.3866666556 -0.0599999988 0
0.3733333348 -0.0599999988 0
0.3600000144 -0.0599999988 0
0.346666664 -0.0599999988 0
0.3333333432 -0.0599999988 0
0.3199999928 -0.0599999988 0
0.3066666724 -0.0599999988 0
0.293333322 -0.0599999988 0
0.2800000012 -0.0599999988 0
0.2666666804 -0.0599999988 0
0.25333333 -0.0599999988 0
0.2399999948 -0.0599999988 0
0.226666674 -0.0599999988 0
0.2133333384 -0.0599999988 0
0.2000000028 -0.0599999988 0
0.1866666676 -0.0599999988 0
0.173333332 -0.0599999988 0
0.1599999964 -0.0599999988 0
0.1466666608 -0.0599999988 0
0.1333333404 -0.0599999988 0
0.1199999972 -0.0599999988 0
0.1066666692 -0.0599999988 0
0.0933333336 -0.0599999988 0
0.0799999984 -0.0599999988 0
0.06666667 -0.0599999988 0
0.0533333348 -0.0599999988 0
0.03999999912 -0.0599999988 0
0.02666666732 -0.0599999988 0
0.01333333364 -0.0599999988 0
0.0 -0.0599999988 0
0.400000004 -0.0733333304 0
0.3866666556 -0.0733333304 0
0.3733333348 -0.0733333304 0
0.3600000144 -0.0733333304 0
0.346666664 -0.0733333304 0
0.3333333432 -0.0733333304 0
0.3199999928 -0.0733333304 0
0.3066666724 -0.0733333304 0
0.293333322 -0.0733333304 0
0.2800000012 -0.0733333304 0
0.2666666804 -0.0733333304 0
0.25333333 -0.0733333304 0
0.2399999948 -0.0733333304 0
0.226666674 -0.0733333304 0
0.2133333384 -0.0733333304 0
0.2000000028 -0.0733333304 0
0.1866666676 -0.0733333304 0
0.173333332 -0.0733333304 0
0.1599999964 -0.0733333304 0
0.1466666608 -0.0733333304 0
0.1333333404 -0.0733333304 0
0.1199999972 -0.0733333304 0
0.1066666692 -0.0733333304 0
0.0933333336 -0.0733333304 0
0.0799999984 -0.0733333304 0
0.06666667 -0.0733333304 0
0.0533333348 -0.0733333304 0
0.03999999912 -0.0733333304 0
0.02666666732 -0.0733333304 0
0.01333333364 -0.0733333304 0
0.0 -0.0733333304 0
0.400000004 -0.086666666 0
0.3866666556 -0.086666666 0
0.3733333348 -0.086666666 0
0.3600000144 -0.086666666 0
0.346666664 -0.086666666 0
0.3333333432 -0.086666666 0
0.3199999928 -0.086666666 0
0.3066666724 -0.086666666 0
0.293333322 -0.086666666 0
0.2800000012 -0.086666666 0
0.2666666804 -0.086666666 0
0.25333333 -0.086666666 0
0.2399999948 -0.086666666 0
0.226666674 -0.086666666 0
0.2133333384 -0.086666666 0
0.2000000028 -0.086666666 0
0.1866666676 -0.086666666 0
0.173333332 -0.086666666 0
0.1599999964 -0.086666666 0
0.1466666608 -0.086666666 0
0.1333333404 -0.086666666 0
0.1199999972 -0.086666666 0
0.1066666692 -0.086666666 0
0.0933333336 -0.086666666 0
0.0799999984 -0.086666666 0
0.06666667 -0.086666666 0
0.0533333348 -0.086666666 0
0.03999999912 -0.086666666 0
0.02666666732 -0.086666666 0
0.01333333364 -0.086666666 0
0.0 -0.086666666 0
0.400000004 -0.1000000016 0
0.3866666556 -0.1000000016 0
0.3733333348 -0.1000000016 0
0.3600000144 -0.1000000016 0
0.346666664 -0.1000000016 0
0.3333333432 -0.1000000016 0
0.3199999928 -0.1000000016 0
0.3066666724 -0.1000000016 0
0.293333322 -0.1000000016 0
0.2800000012 -0.1000000016 0
0.2666666804 -0.1000000016 0
0.25333333 -0.1000000016 0
0.2399999948 -0.1000000016 0
0.226666674 -0.1000000016 0
0.2133333384 -0.1000000016 0
0.2000000028 -0.1000000016 0
0.1866666676 -0.1000000016 0
0.173333332 -0.1000000016 0
0.1599999964 -0.1000000016 0
0.1466666608 -0.1000000016 0
0.1333333404 -0.1000000016 0
0.1199999972 -0.1000000016 0
0.1066666692 -0.1000000016 0
0.0933333336 -0.1000000016 0
0.0799999984 -0.1000000016 0
0.06666667 -0.1000000016 0
0.0533333348 -0.1000000016 0
0.03999999912 -0.1000000016 0
0.02666666732 -0.1000000016 0
0.01333333364 -0.1000000016 0
0.0 -0.1000000016 0
0.400000004 -0.1133333372 0
0.3866666556 -0.1133333372 0
0.3733333348 -0.1133333372 0
0.3600000144 -0.1133333372 0
0.346666664 -0.1133333372 0
0.3333333432 -0.1133333372 0
0.3199999928 -0.1133333372 0
0.3066666724 -0.1133333372 0
0.293333322 -0.1133333372 0
0.2800000012 -0.1133333372 0
0.2666666804 -0.1133333372 0
0.25333333 -0.1133333372 0
0.2399999948 -0.1133333372 0
0.226666674 -0.1133333372 0
0.2133333384 -0.1133333372 0
0.2000000028 -0.1133333372 0
0.1866666676 -0.1133333372 0
0.173333332 -0.1133333372 0
0.1599999964 -0.1133333372 0
0.1466666608 -0.1133333372 0
0.1333333404 -0.1133333372 0
0.1199999972 -0.1133333372 0
0.1066666692 -0.1133333372 0
0.0933333336 -0.1133333372 0
0.0799999984 -0.1133333372 0
0.06666667 -0.1133333372 0
0.0533333348 -0.1133333372 0
0.03999999912 -0.1133333372 0
0.02666666732 -0.1133333372 0
0.01333333364 -0.1133333372 0
0.0 -0.1133333372 0
0.400000004 -0.1266666652 0
0.3866666556 -0.1266666652 0
0.3733333348 -0.1266666652 0
[...]
POINT_DATA 961
SCALARS Temp float 1
LOOKUP_TABLE default
8.739267617352636
9.090020153238989
9.34371348369072
9.522509294471226
9.644532174955941
9.725628006462014
9.778376242972753
9.812096371162355
9.833361171816243
9.846631521030618
9.854857397529981
9.859949802071508
9.86312957635493
9.865179238956973
9.866613159128079
9.867793955586317
9.869022508142029
9.870612461269815
9.872968386589434
9.87668439832487
9.88268259568197
9.892420194591903
9.908187066935492
9.93354591387255
9.973930469731892
10.037423262850757
10.135654132943355
10.284635337586048
10.50519288617259
10.822397024583868
11.2693433272556
8.791190026399873
9.13078148366003
9.382032391022397
9.55974852638071
9.681363584067233
9.762354454544786
9.81513114227818
9.848928833994092
9.870280165959759
9.88362906176192
9.891919999155741
9.897063926400966
9.900283995380814
9.9023657127762
9.903826500779358
9.905032000775115
9.906286040438749
9.907905301236664
9.910297612863308
9.914060595133185
9.920119916487364
9.929935557058679
9.945797742717701
9.971263137302435
10.011745793961751
10.075280844426013
10.173396161862415
10.321896060140128
10.541135407076622
10.855355854168483
11.287538799110383
10.911812259535346
10.962837698774372
11.102855193085746
11.228589661883408
11.326815341406713
11.39883347945519
11.449706068039529
11.484762508348219
11.508511952481701
11.524422689562314
11.53502387436682
11.542101524267844
11.546896014895664
11.550269500347417
11.552837958209219
11.55507388978009
11.557389899634323
11.560214280226647
11.564069367660798
11.569664495358836
11.578015983892376
11.590605548158976
11.609586444825386
11.638033527293922
11.680203949233945
11.741702081499213
11.829278483937433
11.94959052959469
12.104968770500383
12.279834609526862
12.343409863830615
12.561754413282888
12.588700049825334
12.654057385454324
12.733527095588457
12.805303212429543
12.863374590524469
12.907646302011452
12.940175290071855
12.963499482708357
12.97995872039885
12.991474451506235
12.99953289815745
13.005249222391093
13.009454827637201
13.012783442780963
13.015748730869088
13.018814151347117
13.022459350428779
13.027248862231122
13.03390900117969
13.043417534869059
13.057107077717607
13.076773607749162
13.104762615150355
13.1439637614379
13.197564273319514
13.268244889961137
13.356132997988633
13.454074173931872
13.534936497189415
13.568391630610105
13.975773800513503
13.989557906487024
14.026364214181514
14.074905401261242
14.124456726808875
14.16830850180824
14.204175483569918
14.232101887848907
14.253146582787316
14.268664124913826
14.279961629087651
14.288164055056845
14.294187507549832
14.298763247764242
14.302482160241803
14.305845664315221
14.309317784588139
14.313377569054948
14.318573023590432
14.32557759901976
14.33524805898082
14.348677340557902
14.367225208376299
14.392490791339362
14.426156384128976
14.46957652969436
14.52289998959084
14.583430144035667
14.642958912422872
14.688231259957849
14.705206651161374
15.203697437534444
15.2117168746027
15.233645372005043
15.264285946693708
15.297738824911885
15.3294955855281
15.357071954726678
15.379660671649209
15.397441604128483
15.411062762213636
15.421323545376165
15.429008258423877
15.434815458867337
15.439342546434471
15.443099525120441
15.446537115539382
15.450081416635763
15.454171311807523
15.459296673383779
15.46603516442827
15.475083108399376
15.487270984513962
15.503545100377838
15.52488397276564
15.552098381851481
15.58544515782392
15.623986395186876
15.664721933038011
15.70213812706028
15.728968719562186
15.738791431025932
16.2832641218603
16.288130237005355
16.301698428335254
16.32130786135303
16.343697827992177
16.366004172389566
16.386303146728746
16.403643946671117
16.417808977691685
16.429021611637182
16.437719692400396
16.444410496019195
16.449592302872826
16.453721713264898
16.4572091960957
16.46043086877422
16.46374884514083
16.467535300730706
16.47219680541757
16.478195188807966
16.48605929949153
16.496378393629296
16.50976208295725
16.52674556274463
16.54761325325655
16.572120478185642
16.599130884371906
16.626312662078156
16.6501685451351
16.666699149712883
16.672632107488667
17.24560744668987
17.24859567465479
17.257025373862348
17.269481567210583
17.284131757168698
17.2992287697003
17.313449390741297
17.326003946462382
17.336573405592937
17.345172311956954
17.352011972870727
17.357396644038722
17.361657904742803
17.36512053409683
17.368090520360006
17.370857187591398
17.373703382873856
17.37691923669093
17.380815878687933
17.38573524378306
17.392050821673127
17.40015205233115
17.410402225103564
17.42305850337201
17.438144935882846
17.455283648621837
17.47352431854455
17.491262215520162
17.50636850897221
17.5166032145529
17.520233382961035
18.119170026335865
18.120930165851124
18.125933687548045
18.133434987493114
18.142434468608666
18.151927234389802
18.16109427181356
18.1693914447511
18.17654662342786
18.182502586069877
18.18734497709928
18.191239057198526
18.194384785922438
18.196990277739843
18.19925973461748
18.201391384820127
18.203581454066253
18.206030852468636
18.208951699626528
18.21257063496825
18.217125150477685
18.222848181724803
18.229935255624145
18.238489514308363
18.248444090241293
18.259472971369732
18.270919670353557
18.28179128344172
18.290865621033916
18.296924059551376
18.299056299552888
18.930891214521708
18.931760295271395
18.934243627151794
18.93800395324327
18.942579179530835
18.94748920422495
18.952324351331104
18.95679404537131
18.96073528423126
18.96409344480686
18.96689177703565
18.969201443927375
18.97111833708962
18.972748130683705
18.9741984679987
18.97557639058317
18.976989055352938
18.978545944972538
18.980360938283855
18.982552515549813
18.985240084663374
18.98853409951119
18.9925175360871
18.99721745241011
19.002568141089174
19.00837328079941
19.014281794935002
19.019797136916747
19.024336061519005
19.02733617870281
19.02838656809766
19.706814785838777
19.706944520507466
19.707320932860274
19.707908366225748
19.708655518514252
19.7095048298875
19.710401405636258
19.71129948129505
19.712165756999166
19.71297988899709
19.713733124651963
19.714426022971054
19.715066036735735
19.71566539462645
19.71623942620528
19.716805317274314
19.717381183280104
19.71798528278316
19.71863518478983
19.719346695441274
19.720132363308124
19.72099943936776
19.72194725771958
19.722964261156147
19.724025162615945
19.725089182035642
19.72610056463201
19.726992520046778
19.72769503820426
19.728145699998496
19.728301110347502
19.749236752419502
19.749332745439105
19.749612488783146
19.750052814947196
19.750619778052396
19.7512742374618
19.751977472784986
19.752695641661088
19.753402537870645
19.75408059696307
19.754720584589794
19.75532045566019
19.755883879015407
19.756418765101866
19.75693595379245
19.757448112115483
19.75796880653771
19.75851164913512
19.75908940523002
19.75971294555407
19.76038994831956
19.761123318303632
19.76190936985479
19.762736011855804
19.76358131273249
19.764413048163018
19.765189873226014
19.765864596509296
19.76638956890094
19.76672347410892
19.76683811660803
19.790978939443683
19.79105011549085
19.7912582392892
19.79158800088088
19.792016650985104
19.792517403989514
19.793063011888293
19.793628796031598
19.794194753078845
19.794746592499507
19.79527588421086
19.795779552119114
19.796259010848985
19.79671917885197
19.79716749824484
19.79761302756856
19.798065612381983
19.798535084811384
19.799030433482027
19.79955888302434
19.800124844117587
19.80072874722717
19.80136583025491
19.802025079414342
19.80268858152776
19.803331652286445
19.803924064775476
19.804432553140078
19.80482447542964
19.805072127013666
19.80515687004749
19.832166760337138
19.83221894608657
19.832371932396754
19.8326155486481
19.832934519540537
19.833310570173257
19.833724712194726
19.834159280294042
19.834599463193303
19.83503418717805
19.835456416442632
19.835862974353617
19.8362540572638
19.83663259190287
19.837003531240036
19.8373731498919
19.83774836061081
19.83813603371594
19.83854229524626
19.83897177859714
19.83942682177595
19.839906641005854
19.84040654695031
19.840917352270434
19.84142513431486
19.841911565035844
19.84235496338821
19.84273211532208
19.84302073172388
19.843202201300063
19.843264139987852
19.872912780149335
19.87294981419707
19.873058585800095
19.873232430605732
19.87346125943433
19.87373285809847
19.874034335241127
19.874353458895868
19.874679718063373
19.875004996514104
19.875323875669515
19.875633606501115
19.87593384621751
19.876226252815844
19.876514000950163
19.87680126701019
19.877092707876773
19.877392930868677
19.87770594939195
19.878034618362
19.878380055698862
19.878741082156118
19.879113731541153
19.879490933797506
19.87986246911075
19.880215312401607
19.880534437686006
19.880804078374307
19.881009337575975
19.88113792647386
19.881181734428658
19.913321035384232
19.913345420470627
19.9134171303057
19.913532020148892
19.91368378068572
19.913864711114922
19.91406659582696
19.91428153380511
19.914502621937622
19.914724414647914
19.914943159970083
19.915156824057625
19.915364955270547
19.915568441870068
19.915769202333923
19.9159698412208
19.91617329070177
19.916382441115402
19.91659976276491
19.916826920981578
19.917064394173828
19.917311120471343
19.91756420851658
19.917818777042022
19.918067978397588
19.918303270162607
19.91851496334476
19.91869303085608
19.918828103006565
19.91891251507188
19.918941236840457
19.945941285205784
19.945956215353526
19.946000160092474
19.94607068947213
19.94616408962637
19.946275800484727
19.946400918731754
19.946534682179543
19.946672879383947
19.946812136239252
19.946950075449074
19.947085350198247
19.94721757796938
19.947347204006515
19.947475316671092
19.947603435198616
19.94773328390705
19.947866557277393
19.94800468011521
19.948148566905786
19.948298388875617
19.94845336621436
19.948611607350472
19.948770032984267
19.94892441390766
19.949069555277816
19.94919963752576
19.949308698703234
19.949391212848866
19.94944268731582
19.94946018588936
19.966741160173918
19.96675015245681
19.966776642230915
19.96681922748907
19.96687575779361
19.966943578644944
19.967019815541782
19.967101651773707
19.967186568701916
19.967272519492205
19.967358032016527
19.96744223871075
19.9675248461041
19.96760605965862
19.967686476151002
19.967766955920336
19.967848484295263
19.96793202616747
19.968018377892722
19.968108020639143
19.96820098169018
19.9682967150252
19.96839401414242
19.968490978504946
19.96858504829787
19.968673123647843
19.968751770855143
19.9688175042371
19.968867116465344
19.9688980142378
19.968908508910296
19.9797774562374
19.979782798913433
19.97979855004431
19.97982391132928
19.97985765439831
19.97989825568186
19.97994405479914
19.979993411532625
19.980044844305954
19.980097133127096
19.98014938369901
19.980201049911884
19.980251920747357
19.9803020796842
19.98035184313256
19.980401685098684
19.980452154012895
19.980503784763158
19.98055700932145
19.980612069304147
19.980668935040434
19.98072723822257
19.980786225581426
19.980844745448522
19.980901274361084
19.980953991480085
19.981000900609217
19.981039992107007
19.98106942894389
19.98108773309306
19.981093945300195
19.987829498215625
19.987832636468443
19.98784189551312
19.98785682577831
19.987876733500265
19.98790075445764
19.987927941357224
19.9879573514563
19.98798812521008
19.98801954613583
19.988051079661947
19.98808238862259
19.988113328162022
19.98814392415003
19.988174338502876
19.9882048255275
19.98823568295212
19.988267199775077
19.988299603395536
19.988333008452237
19.988367370405815
19.98840244815264
19.9884377798393
19.98847267834696
19.98850624979712
19.988537438720293
19.98856509894647
19.988588085321577
19.988605357295487
19.98861608140085
19.988619718318112
19.992741105785782
19.992742931442038
19.992748321641688
19.9927570255419
19.99276865503746
19.992782724755394
19.992798699843306
19.99281604438026
19.99283426549873
19.992852947656015
19.992871775651974
19.99289054470243
19.992909158789693
19.992927619333663
19.992946005910326
19.992964451331332
19.9929831132904
19.993002143982935
19.993021659370704
19.993041709734296
19.99306225344266
19.993083136477306
19.993104079999696
19.993124679443376
19.993144416631836
19.99316268658334
19.993178838077107
19.993192224998737
19.993202263456848
19.993208487661857
19.993210597025563
19.99570482526941
19.995705878606746
19.99570899064195
19.995714022513592
19.99572075886108
19.995728929374835
19.995738234735793
19.99574837313038
19.995759064746853
19.995770071137052
19.995781208603177
19.99579235448335
19.99580344685144
19.995814478635598
19.995825487015864
19.995836539383113
19.99584771716088
19.9958590983776
19.99587074006964
19.995882661573404
19.99589482989254
19.995907148612968
19.995919451599917
19.995931503333644
19.99594300651654
19.995953617689366
19.99596297014993
19.995970702412503
19.995976489443475
19.995980072918165
19.995981286543554
19.997476310312827
19.997476913762434
19.99747869775934
19.99748158594906
19.99748545965352
19.997490169416903
19.99749554899656
19.99750142977753
19.997507654252022
19.997514086834666
19.997520621528185
19.99752718572605
19.99753374035732
19.99754027686152
19.997546811413983
19.997553377104655
19.997560014825304
19.997566763406617
19.997573649678102
19.9975806791076
19.997587827730086
19.9975950362067
19.99760220667056
19.997609203341298
19.997615857153598
19.997621974716168
19.997627351120364
19.997631785580296
19.997635098395648
19.99763714723725
19.99763784069074
19.99852630445231
19.998526648078137
19.998527664563454
19.998529312165086
19.99853152586983
19.998534223550706
19.99853731347202
19.99854070207557
19.998544301341177
19.99854803476963
19.998551841714928
19.998555679630247
19.99855952430169
19.998563368304758
19.99856721788521
19.99857108864605
19.998575000472556
19.998578972017015
19.998583015150107
19.998587129774965
19.99859129941951
19.998595488080504
19.998599638664498
19.99860367354221
19.998607497297492
19.998611001801198
19.998614073303372
19.998616600965732
19.998618486018344
19.998619650480634
19.998620044372906
19.99914391255635
19.999144107253304
19.99914468352098
19.999145618647674
19.99914687719409
19.99914841426251
19.999150179504284
19.99915212130273
19.999154190766376
19.999156345011237
19.999158549582432
19.99916077975555
19.999163020740227
19.999165266898085
19.999167520070028
19.999169787218648
19.99917207763012
19.999174399862046
19.999176758678477
19.999179152204682
19.999181569541168
19.99918398910039
19.99918637784539
19.999188691701665
19.99919087715907
19.999192874114463
19.99919461976798
19.999196053249253
19.999197120535154
19.99919777910018
19.999198001741938
19.99950448033981
19.999504590274572
19.99950491584091
19.999505444724818
19.99950615767736
19.999507030245535
19.999508034904878
19.999509143297185
19.99951032838581
19.999511566244685
19.99951283739993
19.999514127572866
19.999515427827866
19.999516734178485
19.999518046695865
19.999519368229212
19.999520702875824
19.999522054306873
19.999523424088753
19.999524810134993
19.999526205424065
19.999527597128505
19.99952896624784
19.999530287887406
19.999531532178157
19.999532665855767
19.999533654388003
19.999534464471
19.999535066660368
19.99953543784317
19.999535563261897
19.99971315256167
19.999713214636266
19.999713398565518
19.999713697676768
19.99971410152172
19.999714596792433
19.999715168455147
19.999715800945705
19.999716479330253
19.999717190276925
19.99971792279548
19.999718668657213
19.99971942249378
19.99972018159958
19.999720945457995
19.999721715050203
19.999722492022713
19.999723277774194
19.99972407254123
19.99972487456023
19.99972567938155
19.999726479415628
19.99972726375817
19.999728018369517
19.999728726597734
19.999729370051767
19.999729929759418
19.99973038751183
19.99973072726959
19.999730936476034
19.999731007127846
19.999832210186863
19.99983224558078
19.999832350510115
19.999832521329832
19.99983275232273
19.99983303618783
19.999833364647635
19.999833729090895
19.99983412120173
19.99983453349006
19.999834959701108
19.999835395053037
19.999835836300278
19.999836281634323
19.99983673043081
19.99983718287454
19.99983763950516
19.9998381007174
19.999838566261563
19.99983903478847
19.999839503481148
19.999839967817618
19.999840421488802
19.999840856510993
19.99984126352396
19.999841632276002
19.999841952257903
19.99984221343181
19.999842406988062
19.999842526048173
19.999842566235547
19.999897902243532
19.99989792321481
19.99989798542025
19.99989808679636
19.999898224100967
19.999898393182743
19.999898589317556
19.99989880756616
19.999899043126558
19.999899291633433
19.999899549392218
19.99989981351779
19.999900081975273
19.999900353528997
19.999900627603214
19.999900904072202
19.999901183004596
19.999901464381253
19.99990174781403
19.999902032290837
19.99990231597193
19.999902596062384
19.999902868773226
19.999903129393353
19.999903372464807
19.999903592061074
19.999903782146067
19.999903936982896
19.999904051555408
19.999904121957616
19.999904145708577
19.99993055967592
19.999930573590287
19.9999306148839
19.999930682246497
19.999930773616008
19.9999308863454
19.99993101741184
19.99993116363957
19.999931321921423
19.999931489407768
19.999931663656184
19.999931842721782
19.999932025185792
19.999932210126307
19.999932397032406
19.999932585672745
19.999932775934678
19.99993296764638
19.999933160399753
19.999933353390894
19.999933545294017
19.99993373418478
19.999933917520234
19.999934092189303
19.99993425462763
19.999934400996107
19.999934527408588
19.999934630188775
19.999934706133565
19.999934752755088
19.99993476847575
19.999940410451067
19.999940422255523
19.99994045729565
19.99994051448295
19.99994059210307
19.999940687952652
19.999940799511215
19.9999409241248
19.999941059188743
19.99994120230431
19.999941351403407
19.99994150482411
19.99994166133583
19.99994182011606
19.999941980680163
19.999942142773016
19.999942306236075
19.999942470860255
19.99994263623953
19.999942801639488
19.999942965893975
19.99994312734311
19.999943283818634
19.999943432687523
19.999943570948833
19.99994369538271
19.999943802739356
19.99994388995121
19.999943954350123
19.99994399386619
19.99994400718792
