# vtk DataFile Version 2.0
Unstructured Grid Example
ASCII
DATASET UNSTRUCTURED_GRID

POINTS 961 float
0.400000004 0.01999999956 0
0.3866666556 0.01999999956 0
0.3733333348 0.01999999956 0
0.3600000144 0.01999999956 0
0.346666664 0.01999999956 0
0.3333333432 0.01999999956 0
0.3199999928 0.01999999956 0
0.3066666724 0.01999999956 0
0.293333322 0.01999999956 0
0.2800000012 0.01999999956 0
0.2666666804 0.01999999956 0
0.25333333 0.01999999956 0
0.2399999948 0.01999999956 0
0.226666674 0.01999999956 0
0.2133333384 0.01999999956 0
0.2000000028 0.01999999956 0
0.1866666676 0.01999999956 0
0.173333332 0.01999999956 0
0.1599999964 0.01999999956 0
0.1466666608 0.01999999956 0
0.1333333404 0.01999999956 0
0.1199999972 0.01999999956 0
0.1066666692 0.01999999956 0
0.0933333336 0.01999999956 0
0.0799999984 0.01999999956 0
0.06666667 0.01999999956 0
0.0533333348 0.01999999956 0
0.03999999912 0.01999999956 0
0.02666666732 0.01999999956 0
0.01333333364 0.01999999956 0
0.0 0.01999999956 0
0.400000004 0.00666666684 0
0.3866666556 0.00666666684 0
0.3733333348 0.00666666684 0
0.3600000144 0.00666666684 0
0.346666664 0.00666666684 0
0.3333333432 0.00666666684 0
0.3199999928 0.00666666684 0
0.3066666724 0.00666666684 0
0.293333322 0.00666666684 0
0.2800000012 0.00666666684 0
0.2666666804 0.00666666684 0
0.25333333 0.00666666684 0
0.2399999948 0.00666666684 0
0.226666674 0.00666666684 0
0.2133333384 0.00666666684 0
0.2000000028 0.00666666684 0
0.1866666676 0.00666666684 0
0.173333332 0.00666666684 0
0.1599999964 0.00666666684 0
0.1466666608 0.00666666684 0
0.1333333404 0.00666666684 0
0.1199999972 0.00666666684 0
0.1066666692 0.00666666684 0
0.0933333336 0.00666666684 0
0.0799999984 0.00666666684 0
0.06666667 0.00666666684 0
0.0533333348 0.00666666684 0
0.03999999912 0.00666666684 0
0.02666666732 0.00666666684 0
0.01333333364 0.00666666684 0
0.0 0.00666666684 0
0.400000004 -0.00666666684 0
0.3866666556 -0.00666666684 0
0.3733333348 -0.00666666684 0
0.3600000144 -0.00666666684 0
0.346666664 -0.00666666684 0
0.3333333432 -0.00666666684 0
0.3199999928 -0.00666666684 0
0.3066666724 -0.00666666684 0
0.293333322 -0.00666666684 0
0.2800000012 -0.00666666684 0
0.2666666804 -0.00666666684 0
0.25333333 -0.00666666684 0
0.2399999948 -0.00666666684 0
0.226666674 -0.00666666684 0
0.2133333384 -0.00666666684 0
0.2000000028 -0.00666666684 0
0.1866666676 -0.00666666684 0
0.173333332 -0.00666666684 0
0.1599999964 -0.00666666684 0
0.1466666608 -0.00666666684 0
0.1333333404 -0.00666666684 0
0.1199999972 -0.00666666684 0
0.1066666692 -0.00666666684 0
0.0933333336 -0.00666666684 0
0.0799999984 -0.00666666684 0
0.06666667 -0.00666666684 0
0.0533333348 -0.00666666684 0
0.03999999912 -0.00666666684 0
0.02666666732 -0.00666666684 0
0.01333333364 -0.00666666684 0
0.0 -0.00666666684 0
0.400000004 -0.01999999956 0
0.3866666556 -0.01999999956 0
0.3733333348 -0.01999999956 0
0.3600000144 -0.01999999956 0
0.346666664 -0.01999999956 0
0.3333333432 -0.01999999956 0
0.3199999928 -0.01999999956 0
0.3066666724 -0.01999999956 0
0.293333322 -0.01999999956 0
0.2800000012 -0.01999999956 0
0.2666666804 -0.01999999956 0
0.25333333 -0.01999999956 0
0.2399999948 -0.01999999956 0
0.226666674 -0.01999999956 0
0.2133333384 -0.01999999956 0
0.2000000028 -0.01999999956 0
0.1866666676 -0.01999999956 0
0.173333332 -0.01999999956 0
0.1599999964 -0.01999999956 0
0.1466666608 -0.01999999956 0
0.1333333404 -0.01999999956 0
0.1199999972 -0.01999999956 0
0.1066666692 -0.01999999956 0
0.0933333336 -0.01999999956 0
0.0799999984 -0.01999999956 0
0.06666667 -0.01999999956 0
0.0533333348 -0.01999999956 0
0.03999999912 -0.01999999956 0
0.02666666732 -0.01999999956 0
0.01333333364 -0.01999999956 0
0.0 -0.01999999956 0
0.400000004 -0.03333333508 0
0.3866666556 -0.03333333508 0
0.3733333348 -0.03333333508 0
0.3600000144 -0.03333333508 0
0.346666664 -0.03333333508 0
0.3333333432 -0.03333333508 0
0.3199999928 -0.03333333508 0
0.3066666724 -0.03333333508 0
0.293333322 -0.03333333508 0
0.2800000012 -0.03333333508 0
0.2666666804 -0.03333333508 0
0.25333333 -0.03333333508 0
0.2399999948 -0.03333333508 0
0.226666674 -0.03333333508 0
0.2133333384 -0.03333333508 0
0.2000000028 -0.03333333508 0
0.1866666676 -0.03333333508 0
0.173333332 -0.03333333508 0
0.1599999964 -0.03333333508 0
0.1466666608 -0.03333333508 0
0.1333333404 -0.03333333508 0
0.1199999972 -0.03333333508 0
0.1066666692 -0.03333333508 0
0.0933333336 -0.03333333508 0
0.0799999984 -0.03333333508 0
0.06666667 -0.03333333508 0
0.0533333348 -0.03333333508 0
0.03999999912 -0.03333333508 0
0.02666666732 -0.03333333508 0
0.01333333364 -0.03333333508 0
0.0 -0.03333333508 0
0.400000004 -0.0466666668 0
0.3866666556 -0.0466666668 0
0.3733333348 -0.0466666668 0
0.3600000144 -0.0466666668 0
0.346666664 -0.0466666668 0
0.3333333432 -0.0466666668 0
0.3199999928 -0.0466666668 0
0.3066666724 -0.0466666668 0
0.293333322 -0.0466666668 0
0.2800000012 -0.0466666668 0
0.2666666804 -0.0466666668 0
0.25333333 -0.0466666668 0
0.2399999948 -0.0466666668 0
0.226666674 -0.0466666668 0
0.2133333384 -0.0466666668 0
0.2000000028 -0.0466666668 0
0.1866666676 -0.0466666668 0
0.173333332 -0.0466666668 0
0.1599999964 -0.0466666668 0
0.1466666608 -0.0466666668 0
0.1333333404 -0.0466666668 0
0.1199999972 -0.0466666668 0
0.1066666692 -0.0466666668 0
0.0933333336 -0.0466666668 0
0.0799999984 -0.0466666668 0
0.06666667 -0.0466666668 0
0.0533333348 -0.0466666668 0
0.03999999912 -0.0466666668 0
0.02666666732 -0.0466666668 0
0.01333333364 -0.0466666668 0
0.0 -0.0466666668 0
0.400000004 -0.0599999988 0
0.3866666556 -0.0599999988 0
0.3733333348 -0.0599999988 0
0.3600000144 -0.0599999988 0
0.346666664 -0.0599999988 0
0.3333333432 -0.0599999988 0
0.3199999928 -0.0599999988 0
0.3066666724 -0.0599999988 0
0.293333322 -0.0599999988 0
0.2800000012 -0.0599999988 0
0.2666666804 -0.0599999988 0
0.25333333 -0.0599999988 0
0.2399999948 -0.0599999988 0
0.226666674 -0.0599999988 0
0.2133333384 -0.0599999988 0
0.2000000028 -0.0599999988 0
0.1866666676 -0.0599999988 0
0.173333332 -0.0599999988 0
0.1599999964 -0.0599999988 0
0.1466666608 -0.0599999988 0
0.1333333404 -0.0599999988 0
0.1199999972 -0.0599999988 0
0.1066666692 -0.0599999988 0
0.0933333336 -0.0599999988 0
0.0799999984 -0.0599999988 0
0.06666667 -0.0599999988 0
0.0533333348 -0.0599999988 0
0.03999999912 -0.0599999988 0
0.02666666732 -0.0599999988 0
0.01333333364 -0.0599999988 0
0.0 -0.0599999988 0
0.400000004 -0.0733333304 0
0.3866666556 -0.0733333304 0
0.3733333348 -0.0733333304 0
0.3600000144 -0.0733333304 0
0.346666664 -0.0733333304 0
0.3333333432 -0.0733333304 0
0.3199999928 -0.0733333304 0
0.3066666724 -0.0733333304 0
0.293333322 -0.0733333304 0
0.2800000012 -0.0733333304 0
0.2666666804 -0.0733333304 0
0.25333333 -0.0733333304 0
0.2399999948 -0.0733333304 0
0.226666674 -0.0733333304 0
0.2133333384 -0.0733333304 0
0.2000000028 -0.0733333304 0
0.1866666676 -0.0733333304 0
0.173333332 -0.0733333304 0
0.1599999964 -0.0733333304 0
0.1466666608 -0.0733333304 0
0.1333333404 -0.0733333304 0
0.1199999972 -0.0733333304 0
0.1066666692 -0.0733333304 0
0.0933333336 -0.0733333304 0
0.0799999984 -0.0733333304 0
0.06666667 -0.0733333304 0
0.0533333348 -0.0733333304 0
0.03999999912 -0.0733333304 0
0.02666666732 -0.0733333304 0
0.01333333364 -0.0733333304 0
0.0 -0.0733333304 0
0.400000004 -0.086666666 0
0.3866666556 -0.086666666 0
0.3733333348 -0.086666666 0
0.3600000144 -0.086666666 0
0.346666664 -0.086666666 0
0.3333333432 -0.086666666 0
0.3199999928 -0.086666666 0
0.3066666724 -0.086666666 0
0.293333322 -0.086666666 0
0.2800000012 -0.086666666 0
0.2666666804 -0.086666666 0
0.25333333 -0.086666666 0
0.2399999948 -0.086666666 0
0.226666674 -0.086666666 0
0.2133333384 -0.086666666 0
0.2000000028 -0.086666666 0
0.1866666676 -0.086666666 0
0.173333332 -0.086666666 0
0.1599999964 -0.086666666 0
0.1466666608 -0.086666666 0
0.1333333404 -0.086666666 0
0.1199999972 -0.086666666 0
0.1066666692 -0.086666666 0
0.0933333336 -0.086666666 0
0.0799999984 -0.086666666 0
0.06666667 -0.086666666 0
0.0533333348 -0.086666666 0
0.03999999912 -0.086666666 0
0.02666666732 -0.086666666 0
0.01333333364 -0.086666666 0
0.0 -0.086666666 0
0.400000004 -0.1000000016 0
0.3866666556 -0.1000000016 0
0.3733333348 -0.1000000016 0
0.3600000144 -0.1000000016 0
0.346666664 -0.1000000016 0
0.3333333432 -0.1000000016 0
0.3199999928 -0.1000000016 0
0.3066666724 -0.1000000016 0
0.293333322 -0.1000000016 0
0.2800000012 -0.1000000016 0
0.2666666804 -0.1000000016 0
0.25333333 -0.1000000016 0
0.2399999948 -0.1000000016 0
0.226666674 -0.1000000016 0
0.2133333384 -0.1000000016 0
0.2000000028 -0.1000000016 0
0.1866666676 -0.1000000016 0
0.173333332 -0.1000000016 0
0.1599999964 -0.1000000016 0
0.1466666608 -0.1000000016 0
0.1333333404 -0.1000000016 0
0.1199999972 -0.1000000016 0
0.1066666692 -0.1000000016 0
0.0933333336 -0.1000000016 0
0.0799999984 -0.1000000016 0
0.06666667 -0.1000000016 0
0.0533333348 -0.1000000016 0
0.03999999912 -0.1000000016 0
0.02666666732 -0.1000000016 0
0.01333333364 -0.1000000016 0
0.0 -0.1000000016 0
0.400000004 -0.1133333372 0
0.3866666556 -0.1133333372 0
0.3733333348 -0.1133333372 0
0.3600000144 -0.1133333372 0
0.346666664 -0.1133333372 0
0.3333333432 -0.1133333372 0
0.3199999928 -0.1133333372 0
0.3066666724 -0.1133333372 0
0.293333322 -0.1133333372 0
0.2800000012 -0.1133333372 0
0.2666666804 -0.1133333372 0
0.25333333 -0.1133333372 0
0.2399999948 -0.1133333372 0
0.226666674 -0.1133333372 0
0.2133333384 -0.1133333372 0
0.2000000028 -0.1133333372 0
0.1866666676 -0.1133333372 0
0.173333332 -0.1133333372 0
0.1599999964 -0.1133333372 0
0.1466666608 -0.1133333372 0
0.1333333404 -0.1133333372 0
0.1199999972 -0.1133333372 0
0.1066666692 -0.1133333372 0
0.0933333336 -0.1133333372 0
0.0799999984 -0.1133333372 0
0.06666667 -0.1133333372 0
0.0533333348 -0.1133333372 0
0.03999999912 -0.1133333372 0
0.02666666732 -0.1133333372 0
0.01333333364 -0.1133333372 0
0.0 -0.1133333372 0
0.400000004 -0.1266666652 0
0.3866666556 -0.1266666652 0
0.3733333348 -0.1266666652 0
[...]
POINT_DATA 961
SCALARS Temp float 1
LOOKUP_TABLE default
1.7521302115909014
1.824898866470871
1.8828227642265496
1.9297657255045777
1.9679762721981002
1.9990829652451994
2.024353344812089
2.0448167089095857
2.0613369887972666
2.074653285546178
2.0854091568428097
2.0941715052531626
2.1014459937324284
2.1076927027158585
2.113340743919844
2.118803156434535
2.1244937102785717
2.1308440512814975
2.13832173972739
2.1474490365978274
2.1588222855270693
2.173133037848802
2.1911893391885235
2.2139427256449147
2.2425197954782736
2.278266826778439
2.322815935069227
2.3781900750711014
2.4469878855963643
2.53273615141721
2.641585523007955
1.797265401407766
1.868131799593729
1.9255016309930375
1.9721751907439415
2.0102388732894783
2.0412641805256255
2.0664913386572494
2.086935075794432
2.103450685460329
2.116771904806768
2.127538824122211
2.136316099535176
2.143607978294463
2.1498736669542997
2.155541765154826
2.161025030971738
2.1667370386364277
2.173109201488619
2.180608673946726
2.189756976731471
2.2011491831442704
2.215474748330354
2.233538429696716
2.256286608387574
2.2848377999519407
2.3205252309506923
2.3649588032916027
2.420120343130141
2.48851853578529
2.573471403343823
2.6791660610347545
3.870512654092034
3.882673265627249
3.9164323262225818
3.950442787763727
3.981186607806419
4.007875408616431
4.030577153477662
4.049648535204089
4.065544756095493
4.078744719436345
4.089720250090281
4.098923707653611
4.106784931945639
4.113713754254267
4.120105943534681
4.126351585209565
4.132845247789002
4.139997205823733
4.148244982953177
4.158064513756335
4.16998009453605
4.18457194202145
4.202479588334915
4.224398292282522
4.25106183163278
4.2831970165464535
4.3214115307482786
4.365905101498359
4.415612991216282
4.465367416269643
4.48330456061923
5.859964359726998
5.866930836442385
5.8845713672628
5.9075926693434475
5.93097289463646
5.952763575061701
5.972233667665857
5.989217092792561
6.003819903094074
6.016282188875373
6.026909115801449
6.036034915885244
6.0440046056042025
6.05116596958514
6.057867665618146
6.064461256834997
6.071305697745801
6.078772919497009
6.087253379143752
6.0971602813305354
6.108930855563835
6.123022567358552
6.1399004827493275
6.160010162002321
6.183723904363051
6.211236585260907
6.242357307527078
6.27606565041381
6.309525382181919
6.335294850907609
6.345503744950938
7.8107217657844625
7.814732057739425
7.8257418462575785
7.841173077650245
7.858407693916385
7.8755553515333006
7.891622114473627
7.906158485473779
7.919035100067992
7.930308511472645
7.940143170984861
7.9487653839175945
7.956436472887144
7.963437812095242
7.970063174771006
7.976615735952937
7.98340786271442
7.990762005958111
7.999011245612078
8.008497861299169
8.01956791112081
8.032559160393548
8.047777989860906
8.065459035562855
8.085695693605109
8.108321658320216
8.132707658022579
8.15742023576412
8.179688185712834
8.195645125343791
8.20146913610701
9.730483399098079
9.733076709851872
9.740349152562235
9.751030396663781
9.763597269634563
9.776746303675957
9.789577511730911
9.801573187949074
9.812491192683506
9.822274013054844
9.830984105529241
9.838760299857363
9.845789481764879
9.85228885026174
9.858495137951508
9.864658397465114
9.871038515759018
9.877902724083144
9.885522572754544
9.89416866640037
9.90410110425449
9.91555304926089
9.928703541042742
9.943634710426053
9.960265618482268
9.97825356218853
9.996855498953689
10.014763706974506
10.030068716155814
10.040527403339663
10.044263785041032
11.624682145848599
11.626419990015586
11.631369593229307
11.638834215630684
11.647915906226611
11.657750797971087
11.667656890030852
11.67717449873875
11.686042400469187
11.694151609014646
11.701502340940635
11.708169990535083
11.714280454199322
11.719993155136695
11.725489643249933
11.730966048692475
11.736627878686793
11.742685619196248
11.749349738876038
11.756823546439936
11.765292107456606
11.774905142792546
11.785751120894835
11.797819883356453
11.810950755878592
11.824766331666002
11.838601115053782
11.851462115705173
11.862085410463898
11.869152400842523
11.871637668354644
13.497684232909771
13.498848903772743
13.502196095260324
13.507329354814871
13.513711767202656
13.520790234039286
13.528089183744772
13.53525576813775
13.54206475203598
13.548401085912404
13.554235824691938
13.55960326976674
13.56458240101977
13.569282976296314
13.573835455596933
13.578383756393308
13.58307978089183
13.588078518082808
13.59353259517349
13.599585044558586
13.606358923331861
13.6139423626981
13.622367418406803
13.631581904425865
13.641414344518646
13.651536444091526
13.661435283798786
13.67041788024609
13.677676001930958
13.682423060325652
13.684077285483244
15.353624693089067
15.35436434808464
15.356502557854643
15.359817741206024
15.364000624375231
15.368718543502958
15.373669840319405
15.378616448055952
15.383394848371488
15.387911729786902
15.392132496590797
15.396067975112993
15.399762380334705
15.403283605144779
15.406715725455646
15.410153277470371
15.413696682382543
15.417448019554776
15.421506378328436
15.425961948983772
15.430887969535744
15.43632971313756
15.442289761873178
15.448709744875945
15.455449836841204
15.462270503283632
15.46882480843938
15.474672964327958
15.47932926857197
15.482341390440652
15.483384869225256
17.196634239525714
17.197027629125774
17.198169856402533
17.199955813858306
17.202236004097365
17.2048451971855
17.207628295249503
17.210457673148372
17.213240974242144
17.21592120039746
17.21847245419712
17.220893912946035
17.22320381625659
17.225434278542348
17.227627044106196
17.22983006026424
17.23209460000213
17.234472533268082
17.237013358109916
17.239760567955134
17.242746929520187
17.24598833137961
17.249475964252703
17.253167219826835
17.256976352895197
17.260767534950126
17.26435435237582
17.267510491488345
17.269994745728162
17.27158863829522
17.272138440217343
19.030909607398872
19.03099282809856
19.0312378790392
19.031631693127828
19.0321548178164
19.032784215704744
19.03349613709065
19.034268487191362
19.035082452274892
19.03592331348329
19.03678064228879
19.03764803075012
19.03852255325779
19.039404101478205
19.040294648732413
19.04119748605089
19.04211645191603
19.043055135547704
19.0440160453487
19.04499972985856
19.04600384853157
19.04702222226166
19.048043904240686
19.049052427533024
19.05002538917458
19.050934669655
19.05174757811477
19.05242914223874
19.05294553230016
19.0532682125897
19.053378025405237
19.132980864521095
19.133049264773057
19.133251273784932
19.133577777253493
19.134015001023023
19.134546270205462
19.135153903402152
19.135820880877432
19.136532113509322
19.13727519992801
19.13804075440404
19.138822361132842
19.139616275602265
19.140420974730926
19.141236601092515
19.142064345529946
19.142905800506295
19.1437622807409
19.144634119852736
19.1455199487018
19.146415970254463
19.1473152730885
19.14820722857822
19.14907710384086
19.14990599622196
19.15067127580716
19.151347672997098
19.151909073772178
19.152330935604027
19.152593017462035
19.152681939074974
19.23468394625185
19.23474085085936
19.234909291044566
19.23518273496685
19.235551192942214
19.23600235810887
19.236522882387725
19.237099556622372
19.237720276710434
19.238374685622198
19.23905452410357
19.2397536951049
19.24046811255384
19.24119540336
19.24193449413564
19.242685122444332
19.243447307870568
19.244220789092005
19.245004445754123
19.24579572152498
19.246590071739558
19.24738047979879
19.248157081800635
19.24890700292015
19.249614467214677
19.250261292612706
19.250827825478822
19.25129431132722
19.251642606221154
19.251858010547753
19.251930924960657
19.336054173782788
19.336101934283498
19.33624355046631
19.336474215019226
19.33678650519804
19.33717114673265
19.337617894861978
19.33811637996353
19.338656839422665
19.33923064079657
19.339830608026308
19.34045113201511
19.341088105557052
19.341738728041193
19.342401199554793
19.34307433767646
19.3437571510925
19.34444838096385
19.345146033647712
19.345846926217014
19.346546270956274
19.347237339840117
19.34791123990193
19.348556877808495
19.349161144665775
19.349709386574094
19.350186173569526
19.350576339195747
19.350866207825852
19.351044856492088
19.351105221052595
19.437122138421046
19.437162468246093
19.437282200987678
19.43747769497641
19.437743284600472
19.438071811381842
19.43845525183956
19.43888533744847
19.439354114798718
19.439854367370078
19.44037990228509
19.44092567396556
19.441487766796246
19.442063266650422
19.442650032390908
19.44324639438782
19.44385081119248
19.44446149709023
19.44507604549037
19.445691071076386
19.44630189644497
19.44690231916168
19.447484482110433
19.448038905844886
19.448554694834193
19.44901995573049
19.4494224207172
19.449750241950227
19.44999289027503
19.450142049640792
19.450192382813356
19.537914982428656
19.53794917042618
19.538050751530324
19.538216869563115
19.53844305603548
19.538723618246532
19.53905210711201
19.5394217890922
19.5398260866598
19.540258922515726
19.540714967608267
19.54118976268413
19.541679725446354
19.54218206337853
19.542694598073677
19.543215523070824
19.543743122885463
19.544275466246525
19.5448100979093
19.54534375149748
19.545872107263783
19.546389625578477
19.546889472959883
19.547363585204405
19.547802868863698
19.548197563518972
19.548537749839202
19.548813970235692
19.549017908942126
19.549143052170688
19.54918524295065
19.630551447070474
19.630580210009057
19.63066571676879
19.630805690216288
19.630996553596866
19.6312337234998
19.63151196815063
19.631825774462275
19.63216969875014
19.632538648007554
19.63292809064586
19.633334167880786
19.633753712220464
19.63418418683141
19.634623548473687
19.635070051849812
19.635522019356397
19.63597758853942
19.636434459707566
19.636889664391788
19.63733937587144
19.6377787876346
19.63820207206778
19.638602453450776
19.638972391072713
19.639303885852744
19.639588893209197
19.639819812597295
19.63999001169091
19.64009432595014
19.64012947276893
19.708028384806987
19.70805216445485
19.708122886816152
19.70823875376514
19.708396932127428
19.708593774528424
19.70882509250525
19.709086439428884
19.70937338569043
19.70968174352725
19.710007740367992
19.71034811517294
19.71070014101895
19.711061583420268
19.711430595092377
19.711805561305276
19.71218491590158
19.712566938792207
19.712949554522346
19.713330149901996
19.71370542865382
19.714071324085538
19.71442297845167
19.714754814820605
19.71506069471561
19.715334169467436
19.715568808713197
19.71575858126801
19.71589825591483
19.715983778066573
19.71601257876474
19.771856560493582
19.77187589488102
19.771933417115672
19.772027722911716
19.772156594051022
19.772317164048765
19.772506124817482
19.77271994249757
19.77295507031951
19.773208124874245
19.773476025039923
19.77375607199113
19.774045971784325
19.77434380710041
19.774647957709206
19.774956980664307
19.775269466566257
19.77558388092236
19.77589840700785
19.77621080522443
19.776518303590052
19.776817535979987
19.77710453402638
19.777374792091532
19.777623397828695
19.777845233042456
19.778035230293963
19.77818866531849
19.77830146063613
19.778370467802795
19.778393697079327
19.82367820548022
19.823693678793234
19.823739727920696
19.823815268974997
19.82391858622298
19.824047455451403
19.824199298944478
19.824371348299913
19.824560806801344
19.824764985229276
19.824981410789466
19.825207891529583
19.82544253682562
19.82568373853948
19.825930111835717
19.82618040408788
19.82643338486204
19.82668772422395
19.826941872661692
19.827193954704665
19.82744168781909
19.827682339445417
19.82791272607613
19.828129268879927
19.82832809865803
19.82850521295456
19.828656673207018
19.82877882635786
19.828868532533228
19.828923374892867
19.828941829290326
19.86516065629474
19.865172856491565
19.865209174531902
19.865268783773445
19.86535037330067
19.865452238984446
19.865572398538397
19.86570871292426
19.86585900854145
19.866021180198235
19.86619327490314
19.866373542443235
19.8665604528949
19.866752684311116
19.86694907935615
19.867148577248877
19.867350131133065
19.86755261650542
19.86775474118278
19.86795496627393
19.868151447094636
19.868342003800613
19.86852412422174
19.868695009667874
19.868851657281752
19.868990980662183
19.86910995904701
19.869205803153523
19.869276124120823
19.869319088146142
19.86933354085917
19.89791210499169
19.897921591907462
19.897949839855027
19.89799622576099
19.89805975993286
19.89813915262878
19.8982328985828
19.898339366481224
19.898456889720507
19.898583843326865
19.898718707326612
19.898860105633283
19.89900682041509
19.899157784249724
19.89931204882907
19.89946873495054
19.89962697153749
19.899785827946488
19.899944247638082
19.900100990454604
19.900254590259134
19.90040333524103
19.900545272404116
19.900678244185183
19.900799951767134
19.90090804617348
19.9010002395766
19.90107442789789
19.901128814835324
19.901162024741488
19.901173193025414
19.923420974766817
19.923428259031642
19.923449953331
19.92348559325714
19.923534440049785
19.92359552878374
19.92366772981689
19.923749813988564
19.923840519204017
19.92393860711159
19.92404291030911
19.92415236171106
19.924266005986414
19.92438299471989
19.924502564162598
19.92462399905572
19.92474658835853
19.924869576024456
19.924992112926585
19.925113215364814
19.925231735163635
19.92534634674183
19.92545555202881
19.92555770905709
19.925651079796744
19.925733897947
19.925804450918655
19.92586116942661
19.9259027175993
19.925928074593873
19.925936599727454
19.943016789722186
19.943022321403962
19.943038799581384
19.943065881586474
19.943103021559804
19.94314950500318
19.943204493009997
19.943267069272533
19.943336288384415
19.94341121709271
19.94349096900111
19.943574726414038
19.943661749235638
19.94375137211489
19.94384298885577
19.94393602662519
19.944029914291363
19.944124047164838
19.94421775267445
19.944310260981336
19.944400684186743
19.944488008047
19.944571096658827
19.94464871436792
19.944719561379774
19.944782323567892
19.944835732163973
19.944878628543186
19.9449100290595
19.944929183526323
19.94493562174339
19.95785054386045
19.95785470891348
19.957867118592674
19.95788752209952
19.957915519385576
19.957950585726547
19.957992103291513
19.958039394731117
19.958091757889616
19.958148495524874
19.958208940547404
19.958272472073798
19.958338522233774
19.958406574595177
19.958476153388162
19.958546805353233
19.958618077397233
19.95868949166885
19.958760521374924
19.958830570245524
19.958898958280194
19.958964916592212
19.95902759155879
19.95908606136812
19.95913936222199
19.959186524554493
19.959226616082262
19.95925878824336
19.959282322469406
19.959296671770385
19.959301493730592
19.968888822366214
19.968891944920234
19.968901250332767
19.968916555846356
19.968937569559998
19.96896390781661
19.96899511761672
19.96903070048095
19.969070137247538
19.969112909344368
19.969158517020773
19.969206491056518
19.969256397914172
19.96930783896809
19.969360443141568
19.96941385425936
19.96946771543922
19.9695216516494
19.969575252842258
19.96962805975618
19.96967955426385
19.969729156280202
19.969776227287564
19.96982008272261
19.96986001111682
19.96989530026612
19.96992526810023
19.96994929579348
19.969966860627444
19.969977565426753
19.969981161858943
19.97691867357301
19.97692102213661
19.976928022368476
19.976939540720185
19.976955363603803
19.97697520971121
19.97699874594899
19.9770256044075
19.977055400092603
19.97708774615755
19.977122267080475
19.97715860720509
19.977196434635587
19.977235440954615
19.977275336224878
19.97731584021114
19.977356671520177
19.977397535439017
19.977438112218532
19.977478047303546
19.97751694484579
19.977554365940886
19.977589831560437
19.977622831820593
19.97765283996928
19.977679331312338
19.97770180537545
19.977719809547807
19.977732962462913
19.97774097487669
19.977743666156414
19.982558120049994
19.982559916138147
19.982565270656433
19.982574084401456
19.982586198500954
19.98260140327306
19.98261944972509
19.982640061797625
19.98266294923082
19.982687818627603
19.98271438311646
19.982742368670507
19.982771517090658
19.9828015860101
19.982832345480638
19.982863571822634
19.982895039997157
19.982926515042703
19.982957743859078
19.982988448428372
19.983018321435114
19.983047025331935
19.983074194776812
19.983099443664486
19.983122375496848
19.983142597274277
19.98315973564649
19.98317345405348
19.983183469617813
19.983189568184255
19.98319161617243
19.986269322960883
19.986270751015986
19.986275009095255
19.986282020465914
19.986291662084245
19.986303771231338
19.98631815415477
19.986334595267497
19.98635286686683
19.986372737497064
19.986393979321576
19.986416372984667
19.98643970998157
19.98646379282145
19.98648843261499
19.98651344460321
19.986538642597864
19.98656383272288
19.98658880743582
19.98661334065014
19.986637184679253
19.986660069792308
19.986681706285967
19.986701790022828
19.986720010427312
19.986736061096238
19.986749652053316
19.986760522691764
19.986768454488786
19.98677328229496
19.986774903213806
19.988371571936344
19.98837278980505
19.988376421643423
19.988382403390027
19.988390632217
19.988400971927966
19.988413260006816
19.988427315117733
19.988442945064527
19.988459953641154
19.988478146716556
19.988497336273557
19.98851734242685
19.988537993663947
19.988559124982768
19.988580574350397
19.988602178290286
19.98862376690289
19.98864515912647
19.988666158909165
19.988686552877006
19.98870611014548
19.988724584168903
19.988741717425853
19.988757248073455
19.98877091871397
19.98878248646715
19.988791733567837
19.988798477751484
19.988802581456042
19.988803959048816
19.989051811466997
19.989052961044425
19.989056389402634
19.98906203657016
19.989069806246352
19.98907957080237
19.989091177818814
19.98910445704069
19.98911922777103
19.98913530523559
19.98915250625272
19.98917065300651
19.98918957495027
19.989209109070597
19.989229098200035
19.989249387773135
19.989269821780475
19.98929023819856
19.98931046464695
19.98933031489519
19.989349586760884
19.98936806200004
19.989385508082353
19.989401682599205
19.989416339484563
19.989429237187643
19.989440148043407
19.989448868116906
19.989455226841724
19.989459095552576
19.98946039418266
