# vtk DataFile Version 2.0
Unstructured Grid Example
ASCII
DATASET UNSTRUCTURED_GRID

POINTS 961 float
0.400000004 0.01999999956 0
0.3866666556 0.01999999956 0
0.3733333348 0.01999999956 0
0.3600000144 0.01999999956 0
0.346666664 0.01999999956 0
0.3333333432 0.01999999956 0
0.3199999928 0.01999999956 0
0.3066666724 0.01999999956 0
0.293333322 0.01999999956 0
0.2800000012 0.01999999956 0
0.2666666804 0.01999999956 0
0.25333333 0.01999999956 0
0.2399999948 0.01999999956 0
0.226666674 0.01999999956 0
0.2133333384 0.01999999956 0
0.2000000028 0.01999999956 0
0.1866666676 0.01999999956 0
0.173333332 0.01999999956 0
0.1599999964 0.01999999956 0
0.1466666608 0.01999999956 0
0.1333333404 0.01999999956 0
0.1199999972 0.01999999956 0
0.1066666692 0.01999999956 0
0.0933333336 0.01999999956 0
0.0799999984 0.01999999956 0
0.06666667 0.01999999956 0
0.0533333348 0.01999999956 0
0.03999999912 0.01999999956 0
0.02666666732 0.01999999956 0
0.01333333364 0.01999999956 0
0.0 0.01999999956 0
0.400000004 0.00666666684 0
0.3866666556 0.00666666684 0
0.3733333348 0.00666666684 0
0.3600000144 0.00666666684 0
0.346666664 0.00666666684 0
0.3333333432 0.00666666684 0
0.3199999928 0.00666666684 0
0.3066666724 0.00666666684 0
0.293333322 0.00666666684 0
0.2800000012 0.00666666684 0
0.2666666804 0.00666666684 0
0.25333333 0.00666666684 0
0.2399999948 0.00666666684 0
0.226666674 0.00666666684 0
0.2133333384 0.00666666684 0
0.2000000028 0.00666666684 0
0.1866666676 0.00666666684 0
0.173333332 0.00666666684 0
0.1599999964 0.00666666684 0
0.1466666608 0.00666666684 0
0.1333333404 0.00666666684 0
0.1199999972 0.00666666684 0
0.1066666692 0.00666666684 0
0.0933333336 0.00666666684 0
0.0799999984 0.00666666684 0
0.06666667 0.00666666684 0
0.0533333348 0.00666666684 0
0.03999999912 0.00666666684 0
0.02666666732 0.00666666684 0
0.01333333364 0.00666666684 0
0.0 0.00666666684 0
0.400000004 -0.00666666684 0
0.3866666556 -0.00666666684 0
0.3733333348 -0.00666666684 0
0.3600000144 -0.00666666684 0
0.346666664 -0.00666666684 0
0.3333333432 -0.00666666684 0
0.3199999928 -0.00666666684 0
0.3066666724 -0.00666666684 0
0.293333322 -0.00666666684 0
0.2800000012 -0.00666666684 0
0.2666666804 -0.00666666684 0
0.25333333 -0.00666666684 0
0.2399999948 -0.00666666684 0
0.226666674 -0.00666666684 0
0.2133333384 -0.00666666684 0
0.2000000028 -0.00666666684 0
0.1866666676 -0.00666666684 0
0.173333332 -0.00666666684 0
0.1599999964 -0.00666666684 0
0.1466666608 -0.00666666684 0
0.1333333404 -0.00666666684 0
0.1199999972 -0.00666666684 0
0.1066666692 -0.00666666684 0
0.0933333336 -0.00666666684 0
0.0799999984 -0.00666666684 0
0.06666667 -0.00666666684 0
0.0533333348 -0.00666666684 0
0.03999999912 -0.00666666684 0
0.02666666732 -0.00666666684 0
0.01333333364 -0.00666666684 0
0.0 -0.00666666684 0
0.400000004 -0.01999999956 0
0.3866666556 -0.01999999956 0
0.3733333348 -0.01999999956 0
0.3600000144 -0.01999999956 0
0.346666664 -0.01999999956 0
0.3333333432 -0.01999999956 0
0.3199999928 -0.01999999956 0
0.3066666724 -0.01999999956 0
0.293333322 -0.01999999956 0
0.2800000012 -0.01999999956 0
0.2666666804 -0.01999999956 0
0.25333333 -0.01999999956 0
0.2399999948 -0.01999999956 0
0.226666674 -0.01999999956 0
0.2133333384 -0.01999999956 0
0.2000000028 -0.01999999956 0
0.1866666676 -0.01999999956 0
0.173333332 -0.01999999956 0
0.1599999964 -0.01999999956 0
0.1466666608 -0.01999999956 0
0.1333333404 -0.01999999956 0
0.1199999972 -0.01999999956 0
0.1066666692 -0.01999999956 0
0.0933333336 -0.01999999956 0
0.0799999984 -0.01999999956 0
0.06666667 -0.01999999956 0
0.0533333348 -0.01999999956 0
0.03999999912 -0.01999999956 0
0.02666666732 -0.01999999956 0
0.01333333364 -0.01999999956 0
0.0 -0.01999999956 0
0.400000004 -0.03333333508 0
0.3866666556 -0.03333333508 0
0.3733333348 -0.03333333508 0
0.3600000144 -0.03333333508 0
0.346666664 -0.03333333508 0
0.3333333432 -0.03333333508 0
0.3199999928 -0.03333333508 0
0.3066666724 -0.03333333508 0
0.293333322 -0.03333333508 0
0.2800000012 -0.03333333508 0
0.2666666804 -0.03333333508 0
0.25333333 -0.03333333508 0
0.2399999948 -0.03333333508 0
0.226666674 -0.03333333508 0
0.2133333384 -0.03333333508 0
0.2000000028 -0.03333333508 0
0.1866666676 -0.03333333508 0
0.173333332 -0.03333333508 0
0.1599999964 -0.03333333508 0
0.1466666608 -0.03333333508 0
0.1333333404 -0.03333333508 0
0.1199999972 -0.03333333508 0
0.1066666692 -0.03333333508 0
0.0933333336 -0.03333333508 0
0.0799999984 -0.03333333508 0
0.06666667 -0.03333333508 0
0.0533333348 -0.03333333508 0
0.03999999912 -0.03333333508 0
0.02666666732 -0.03333333508 0
0.01333333364 -0.03333333508 0
0.0 -0.03333333508 0
0.400000004 -0.0466666668 0
0.3866666556 -0.0466666668 0
0.3733333348 -0.0466666668 0
0.3600000144 -0.0466666668 0
0.346666664 -0.0466666668 0
0.3333333432 -0.0466666668 0
0.3199999928 -0.0466666668 0
0.3066666724 -0.0466666668 0
0.293333322 -0.0466666668 0
0.2800000012 -0.0466666668 0
0.2666666804 -0.0466666668 0
0.25333333 -0.0466666668 0
0.2399999948 -0.0466666668 0
0.226666674 -0.0466666668 0
0.2133333384 -0.0466666668 0
0.2000000028 -0.0466666668 0
0.1866666676 -0.0466666668 0
0.173333332 -0.0466666668 0
0.1599999964 -0.0466666668 0
0.1466666608 -0.0466666668 0
0.1333333404 -0.0466666668 0
0.1199999972 -0.0466666668 0
0.1066666692 -0.0466666668 0
0.0933333336 -0.0466666668 0
0.0799999984 -0.0466666668 0
0.06666667 -0.0466666668 0
0.0533333348 -0.0466666668 0
0.03999999912 -0.0466666668 0
0.02666666732 -0.0466666668 0
0.01333333364 -0.0466666668 0
0.0 -0.0466666668 0
0.400000004 -0.0599999988 0
0.3866666556 -0.0599999988 0
0.3733333348 -0.0599999988 0
0.3600000144 -0.0599999988 0
0.346666664 -0.0599999988 0
0.3333333432 -0.0599999988 0
0.3199999928 -0.0599999988 0
0.3066666724 -0.0599999988 0
0.293333322 -0.0599999988 0
0.2800000012 -0.0599999988 0
0.2666666804 -0.0599999988 0
0.25333333 -0.0599999988 0
0.2399999948 -0.0599999988 0
0.226666674 -0.0599999988 0
0.2133333384 -0.0599999988 0
0.2000000028 -0.0599999988 0
0.1866666676 -0.0599999988 0
0.173333332 -0.0599999988 0
0.1599999964 -0.0599999988 0
0.1466666608 -0.0599999988 0
0.1333333404 -0.0599999988 0
0.1199999972 -0.0599999988 0
0.1066666692 -0.0599999988 0
0.0933333336 -0.0599999988 0
0.0799999984 -0.0599999988 0
0.06666667 -0.0599999988 0
0.0533333348 -0.0599999988 0
0.03999999912 -0.0599999988 0
0.02666666732 -0.0599999988 0
0.01333333364 -0.0599999988 0
0.0 -0.0599999988 0
0.400000004 -0.0733333304 0
0.3866666556 -0.0733333304 0
0.3733333348 -0.0733333304 0
0.3600000144 -0.0733333304 0
0.346666664 -0.0733333304 0
0.3333333432 -0.0733333304 0
0.3199999928 -0.0733333304 0
0.3066666724 -0.0733333304 0
0.293333322 -0.0733333304 0
0.2800000012 -0.0733333304 0
0.2666666804 -0.0733333304 0
0.25333333 -0.0733333304 0
0.2399999948 -0.0733333304 0
0.226666674 -0.0733333304 0
0.2133333384 -0.0733333304 0
0.2000000028 -0.0733333304 0
0.1866666676 -0.0733333304 0
0.173333332 -0.0733333304 0
0.1599999964 -0.0733333304 0
0.1466666608 -0.0733333304 0
0.1333333404 -0.0733333304 0
0.1199999972 -0.0733333304 0
0.1066666692 -0.0733333304 0
0.0933333336 -0.0733333304 0
0.0799999984 -0.0733333304 0
0.06666667 -0.0733333304 0
0.0533333348 -0.0733333304 0
0.03999999912 -0.0733333304 0
0.02666666732 -0.0733333304 0
0.01333333364 -0.0733333304 0
0.0 -0.0733333304 0
0.400000004 -0.086666666 0
0.3866666556 -0.086666666 0
0.3733333348 -0.086666666 0
0.3600000144 -0.086666666 0
0.346666664 -0.086666666 0
0.3333333432 -0.086666666 0
0.3199999928 -0.086666666 0
0.3066666724 -0.086666666 0
0.293333322 -0.086666666 0
0.2800000012 -0.086666666 0
0.2666666804 -0.086666666 0
0.25333333 -0.086666666 0
0.2399999948 -0.086666666 0
0.226666674 -0.086666666 0
0.2133333384 -0.086666666 0
0.2000000028 -0.086666666 0
0.1866666676 -0.086666666 0
0.173333332 -0.086666666 0
0.1599999964 -0.086666666 0
0.1466666608 -0.086666666 0
0.1333333404 -0.086666666 0
0.1199999972 -0.086666666 0
0.1066666692 -0.086666666 0
0.0933333336 -0.086666666 0
0.0799999984 -0.086666666 0
0.06666667 -0.086666666 0
0.0533333348 -0.086666666 0
0.03999999912 -0.086666666 0
0.02666666732 -0.086666666 0
0.01333333364 -0.086666666 0
0.0 -0.086666666 0
0.400000004 -0.1000000016 0
0.3866666556 -0.1000000016 0
0.3733333348 -0.1000000016 0
0.3600000144 -0.1000000016 0
0.346666664 -0.1000000016 0
0.3333333432 -0.1000000016 0
0.3199999928 -0.1000000016 0
0.3066666724 -0.1000000016 0
0.293333322 -0.1000000016 0
0.2800000012 -0.1000000016 0
0.2666666804 -0.1000000016 0
0.25333333 -0.1000000016 0
0.2399999948 -0.1000000016 0
0.226666674 -0.1000000016 0
0.2133333384 -0.1000000016 0
0.2000000028 -0.1000000016 0
0.1866666676 -0.1000000016 0
0.173333332 -0.1000000016 0
0.1599999964 -0.1000000016 0
0.1466666608 -0.1000000016 0
0.1333333404 -0.1000000016 0
0.1199999972 -0.1000000016 0
0.1066666692 -0.1000000016 0
0.0933333336 -0.1000000016 0
0.0799999984 -0.1000000016 0
0.06666667 -0.1000000016 0
0.0533333348 -0.1000000016 0
0.03999999912 -0.1000000016 0
0.02666666732 -0.1000000016 0
0.01333333364 -0.1000000016 0
0.0 -0.1000000016 0
0.400000004 -0.1133333372 0
0.3866666556 -0.1133333372 0
0.3733333348 -0.1133333372 0
0.3600000144 -0.1133333372 0
0.346666664 -0.1133333372 0
0.3333333432 -0.1133333372 0
0.3199999928 -0.1133333372 0
0.3066666724 -0.1133333372 0
0.293333322 -0.1133333372 0
0.2800000012 -0.1133333372 0
0.2666666804 -0.1133333372 0
0.25333333 -0.1133333372 0
0.2399999948 -0.1133333372 0
0.226666674 -0.1133333372 0
0.2133333384 -0.1133333372 0
0.2000000028 -0.1133333372 0
0.1866666676 -0.1133333372 0
0.173333332 -0.1133333372 0
0.1599999964 -0.1133333372 0
0.1466666608 -0.1133333372 0
0.1333333404 -0.1133333372 0
0.1199999972 -0.1133333372 0
0.1066666692 -0.1133333372 0
0.0933333336 -0.1133333372 0
0.0799999984 -0.1133333372 0
0.06666667 -0.1133333372 0
0.0533333348 -0.1133333372 0
0.03999999912 -0.1133333372 0
0.02666666732 -0.1133333372 0
0.01333333364 -0.1133333372 0
0.0 -0.1133333372 0
0.400000004 -0.1266666652 0
0.3866666556 -0.1266666652 0
0.3733333348 -0.1266666652 0
[...]
POINT_DATA 961
SCALARS Temp float 1
LOOKUP_TABLE default
0.762588586675037
0.7930506684736025
0.8149199631329508
0.8308294135664547
0.8424942426437243
0.8510906622677126
0.8574561168461062
0.8621934279520037
0.8657414174141186
0.8684216788415674
0.8704727112536093
0.872073586340165
0.8733612164895056
0.8744437953485021
0.8754108260434799
0.8763410763151025
0.8773098642051935
0.8783957553046453
0.8796875988148362
0.8812925770513887
0.883346008416674
0.8860242540607441
0.8895611682076322
0.8942714734397493
0.9005821400977854
0.9090769205762326
0.9205597986745979
0.9361478181746983
0.9574125007612146
0.9866344619427755
1.0274324053239654
0.8048416417966547
0.8347113618377364
0.856345883815054
0.872168281909684
0.8837930869526816
0.8923730708790207
0.8987335762521754
0.9034716633739545
0.9070231425492112
0.9097080394121053
0.9117640470026201
0.9133698568871997
0.9146622458036819
0.9157494027369971
0.9167208989432145
0.9176556131192061
0.9186289898298973
0.9197197204137597
0.9210167597311151
0.922627347326347
0.9246867655209077
0.9273711602135093
0.9309138614389518
0.9356284971837906
0.9419399213860196
0.9504278579742211
0.9618885535894977
0.9774230648704558
0.9985696201774419
1.0274938238891407
1.0673316753122362
2.7830405235317395
2.7874809736941097
2.799856761307102
2.811276833306804
2.8207266874915584
2.8282518654546234
2.834150568385832
2.838744994486967
2.8423210467609916
2.8451160844213135
2.8473221970931197
2.849093880699657
2.850556363988317
2.8518133995874457
2.852954198698178
2.854059632307152
2.8552079991452337
2.8564806824661932
2.8579680011314705
2.8597756182784395
2.862031864913795
2.86489622026795
2.8685690928254988
2.87330251527934
2.8794100730530765
2.8872709468117597
2.8973133510033686
2.90993353801037
2.9251906545498296
2.9417183660793853
2.9476519677912796
4.736509946564779
4.7389342177391605
4.744885633887236
4.7523248887227645
4.759383114532035
4.76550793121252
4.770609045466278
4.774771369100947
4.778135807083747
4.780850989870147
4.783054858505793
4.784869149647431
4.786399612826537
4.787738695923432
4.788969190268833
4.790168230221772
4.791411435547453
4.792777134276797
4.7943506994468095
4.7962290103767495
4.79852494205904
4.801371567760008
4.804925147744906
4.809365021056301
4.814885908499046
4.821672946327097
4.829837050681502
4.839255267194066
4.849186739049437
4.85713380144713
4.860370829533272
6.684149247340332
6.6854404799657585
6.688930757672908
6.693658401769951
6.698696213907026
6.703434201345072
6.70762098519588
6.71119686159416
6.71419557182972
6.716691065046625
6.718770635943624
6.7205221393940295
6.722028763476931
6.723367819280442
6.724611608905731
6.725829382704472
6.72708985844964
6.728463975855236
6.730027675665955
6.731864456223105
6.734067307769244
6.736739315450956
6.7399915217576805
6.743935588927942
6.748666412302372
6.754225905916224
6.76053174936996
6.767245811951564
6.773551392874662
6.778208432244545
6.7799316081810135
8.628240881050033
8.629028155896924
8.631206986745275
8.634327823893829
8.63787029131956
8.641419142262597
8.644720628653562
8.647660036455662
8.65021057782058
8.652394808589083
8.654260183150678
8.655864846177138
8.657270087495398
8.658536903896982
8.659724978877401
8.660893069479494
8.662100165289496
8.663406959934147
8.664877281733778
8.666579089791528
8.668584489204276
8.670967934888044
8.673801209866234
8.677143050573738
8.681019903151817
8.68539299094651
8.690106666720622
8.69481994592449
8.698976546988291
8.701880172820424
8.70292960085416
10.569915999999449
10.570418138974098
10.571834130431354
10.573928384571582
10.576406349740592
10.578998911143652
10.581510778412817
10.58382732860406
10.585898870943987
10.587719456435401
10.589309652383866
10.59070461044838
10.591946657047261
10.593081167737047
10.59415460969598
10.59521395323258
10.596306871272327
10.597482254970652
10.598790652301643
10.600284199363603
10.602015494891628
10.604034671395592
10.606383552744031
10.60908552659684
10.61212939443812
10.615446141742758
10.618880555475824
10.622170047126854
10.624953819768793
10.626837446503755
10.627505648311335
12.509669463356143
12.509993586359856
12.510917755145305
12.512313351501719
12.51401046241591
12.515841121042259
12.517669723455048
12.519404910599997
12.520997077520393
12.522429087055194
12.52370610549248
12.524847238982742
12.525879624288317
12.526834702546347
12.527746114734782
12.528648703101176
12.529578177999463
12.530571050900926
12.531664482021625
12.532895661774184
12.534300270024623
12.535909456421331
12.53774462590188
12.539809381085389
12.542078194402974
12.544482668403758
12.546899075016917
12.54914491049426
12.55099477493003
12.55222095248862
12.552651188686578
14.447744172745569
14.447944961295466
14.448521723951934
14.449404909442942
14.450499458938644
14.451706535862256
14.452940922918218
14.454140158960678
14.455266000627866
14.456301007255767
14.457243369385543
14.458101898784832
14.458892079638865
14.45963333826745
14.460347332401573
14.461056987469492
14.461786000950903
14.46255853315516
14.463398826447422
14.46433047522976
14.465375031469094
14.46654959900209
14.467863036134046
14.46931057855328
14.470867045609992
14.472479824692975
14.474064273275058
14.475505590969814
14.476671026306123
14.477433078168017
14.47769852935163
16.38425599833364
16.384361923501
16.384667960993063
16.38514187848089
16.38573865937829
16.38640997390159
16.387112329338557
16.387812011907982
16.38848666163368
16.389124366208733
16.389721569160326
16.390280739872242
16.390808367335822
16.39131346935488
16.3918065819344
16.392299123078512
16.392803000068678
16.393330312037833
16.393893009581674
16.394502362771487
16.39516807615683
16.39589689020279
16.39669051797287
16.397542919803506
16.398437141721747
16.39934246609847
16.40021318559718
16.40099066383304
16.401609938401577
16.40201058695749
16.40214938168532
18.319258400735194
18.319282336837855
18.319352780889453
18.319465887172598
18.319615989660885
18.31979647778144
18.320000662092752
18.32022244493541
18.32045673180107
18.320699583024105
18.32094818656682
18.32120071622672
18.321456143081242
18.321714043819657
18.32197441912522
18.322237528333204
18.32250373977311
18.322773383690826
18.32304659799088
18.323323155355563
18.32360226243728
18.32388233038949
18.324160719452724
18.324433494982546
18.3246952392129
18.324939010814106
18.325156552641605
18.32533883524524
18.32547695709533
18.32556329756011
18.32559268853097
18.427212284986396
18.42723241062741
18.4272918559106
18.427387970098117
18.42751677501317
18.4276735007923
18.42785314530087
18.428050943352627
18.428262696886456
18.428484942835073
18.428714996248058
18.428950896669306
18.429191300830382
18.42943535451854
18.42968255574536
18.42993261863692
18.430185342646055
18.43044048019461
18.430697599160126
18.43095593530339
18.43121423210794
18.431470573437636
18.431722216147833
18.431965456976055
18.432195564434583
18.432406834795632
18.432592822471307
18.43274677694553
18.432862274151862
18.43293396130102
18.43295827435368
18.53504474517496
18.535062044137135
18.535113282890187
18.535196574673652
18.53530904490222
18.535447168877642
18.535607140050793
18.535785197334015
18.535977878486015
18.536182172202988
18.536395586732034
18.53661614326475
18.536842320257584
18.537072971659953
18.537307227754397
18.537544388109715
18.537783813618514
18.53802481462635
18.538266535691342
18.53850783638395
18.53874716954404
18.53898246489137
18.539211025314295
18.539429464015946
18.539633700778953
18.539819053819127
18.539980449834662
18.540112759882117
18.540211241449274
18.54027202878587
18.540292585958134
18.642761130094563
18.642776291403305
18.64282129548223
18.64289475795114
18.64299454276321
18.643117980797125
18.643262116833803
18.643423938743293
18.64360056809945
18.643789387028985
18.64398811057489
18.64419480285675
18.64440785260343
18.64462592362911
18.644847885407593
18.645072732016423
18.6452994970729
18.645527163805117
18.645754573181854
18.64598033197236
18.64620272404524
18.646419633162054
18.64662848302221
18.64682621657841
18.64700932362892
18.647173938937517
18.647316019046542
18.647431595495114
18.647517086041066
18.647569623693748
18.647587350800503
18.750365397121964
18.750378919518916
18.75041912600336
18.750484970247797
18.75057482010127
18.750686602461627
18.750817971954888
18.75096647258867
18.7511296801221
18.751305303657706
18.751491252367707
18.751685661009475
18.75188688354533
18.752093465389475
18.752304096566306
18.752517552491724
18.752732629740702
18.752948076895557
18.7531625245137
18.75337441721904
18.753581951813164
18.753783028975835
18.75397522232006
18.754155781755518
18.754321673988404
18.754469673914436
18.754596507951838
18.754699043716144
18.754774511203173
18.754820727817794
18.754836294134723
18.85786047106004
18.85787272708758
18.857909215676276
18.857969122208612
18.858051163749895
18.858153687148967
18.858274786327364
18.858412417382198
18.85856450497613
18.858729022082812
18.858904047920014
18.85908779587622
18.85927861717965
18.859474987579837
18.859675477259543
18.859878709236206
18.860083312959635
18.86028787343608
18.860490880213096
18.860690679517546
18.860885433300982
18.86107309168706
18.86125138076411
18.86141781887922
18.861569760412543
18.86170447588552
18.8618192662018
18.861911604927812
18.861979297415377
18.862020637656396
18.86203454170219
18.96156326754222
18.961574512682027
18.961608025172136
18.961663152533305
18.96173885848252
18.961833790679
18.961946363719033
18.962074841966633
18.962217419470548
18.96237228201262
18.962537655967907
18.962711835321578
18.962893190620385
18.96308016509763
18.96327125681099
18.96346499085116
18.96365988755109
18.963854426883845
18.964047013205892
18.964235943452298
18.964419382049975
18.964595347923428
18.964761714083576
18.96491623023009
18.96505656509423
18.965180374610224
18.96528539243915
18.965369537337853
18.965431029207036
18.965468500484477
18.96548108910802
19.057776928168092
19.057787327104588
19.057818341351453
19.057869434619676
19.05793974887134
19.058028151952705
19.058133297327682
19.058253684356004
19.058387718820104
19.058533761113473
19.0586901669242
19.058855311959903
19.05902760342795
19.059205482256562
19.059387414035776
19.05957187179833
19.059757315805975
19.059942170227167
19.06012480045114
19.060303493733283
19.06047644583577
19.060641758023955
19.06079744384477
19.060941454187667
19.061071716142038
19.061186190198512
19.061282942010667
19.061360224109563
19.061416561744256
19.061450833419553
19.061462337014465
19.146499809641178
19.146509486041047
19.146538362034754
19.14658598614486
19.14665163141879
19.146734329504955
19.146832914393478
19.146946066824707
19.147072360644586
19.14721030036344
19.14735835495516
19.147514979919862
19.147678629763313
19.147847764106082
19.148020844898387
19.148196327149925
19.148372647653837
19.148548211250276
19.148721377881028
19.148890452648434
19.149053680950466
19.149209252200485
19.14935531082142
19.149489981650802
19.149611404696923
19.149717782940794
19.149807439531923
19.14987888066637
19.14993086005678
19.14996243821948
19.14997303045037
19.22775228530848
19.227761334733444
19.227788351548035
19.227832947308734
19.2278944931576
19.227972144623884
19.22806487423472
19.22817150468035
19.228290744808156
19.228421219130723
19.228561496041397
19.228710107322463
19.22886556080729
19.22902634892709
19.22919095035018
19.229357826592494
19.229525417490027
19.22969213476398
19.229856356440546
19.230016423871838
19.230170642906412
19.23031729203189
19.230454635693977
19.23058094895558
19.23069454823935
19.230793831373262
19.230877323591546
19.230943726556017
19.23099196757147
19.231021244039212
19.231031058967666
19.301574355278024
19.30158285430673
19.301608236327983
19.30165016057172
19.3017080728445
19.30178122390432
19.30186869424088
19.30196941922435
19.302082217509195
19.302205814489508
19.302338866084295
19.302479975992323
19.302627708126785
19.302780596647608
19.30293715068242
19.30309585522002
19.30325517157655
19.303413536402516
19.303569361550917
19.303721036140733
19.303866931929594
19.304005414279235
19.3041348566165
19.304253663845405
19.304360299470485
19.304453319378233
19.304531409275413
19.304593423481883
19.304638423161055
19.304665710290752
19.30467485448249
19.36802254683178
19.368030559568716
19.36805449528123
19.36809404984593
19.368148726807377
19.36821785125064
19.368300589019835
19.368395966117735
19.368502891533986
19.36862017616973
19.36874655315268
19.368880693192025
19.369021216599908
19.36916670418653
19.369315704093072
19.36946673575448
19.369618293988953
19.369768851978666
19.36991686508432
19.370060776484607
19.37019902540673
19.370330059816162
19.370452351294865
19.37056441703514
19.370664843840334
19.370752316910693
19.370825650744283
19.370883820348133
19.370925991492122
19.370951547189843
19.370960108378487
19.427166627996282
19.42717421072413
19.427196866178598
19.42723431880183
19.427286117395308
19.427351645809175
19.427430138178465
19.42752069417914
19.427622297748986
19.427733832628938
19.42785409998157
19.427981832185456
19.42811570438048
19.428254345819987
19.428396348121154
19.428540271388457
19.428684650879294
19.42882800282748
19.428968831056235
19.429105635095414
19.429236920301044
19.429361211526423
19.429477067988635
19.429583103852607
19.429678009608132
19.429760576903274
19.429829724456102
19.429884523622402
19.42992422281543
19.42994826858302
19.429956321902146
19.479084756146523
19.47909196063354
19.479113489038884
19.47914908829735
19.479198343027306
19.479260683954585
19.47933540027903
19.479421651933766
19.47951848527346
19.47962484609486
19.47973959517092
19.479861520785192
19.479989349803265
19.48012175922204
19.48025738534513
19.480394831396676
19.480532675978665
19.48066948088508
19.48080379965396
19.480934187357132
19.481059211922663
19.481177468296767
19.481287593060568
19.481388283706593
19.481478317851792
19.481556574962536
19.4816220584603
19.481673917076215
19.48171146497913
19.481734198924922
19.481741811391036
19.523860099921183
19.52386697571472
19.523887524094437
19.523921509782813
19.523968545851652
19.524028100527158
19.524099507481857
19.5241819759235
19.524274604044365
19.52437639016882
19.52448624668598
19.52460301158042
19.524725459065888
19.524852311171685
19.524982247498926
19.525113913838464
19.52524593184393
19.525376908207257
19.5255054445204
19.52563014815958
19.525749644335693
19.525862590435604
19.525967690274715
19.526063712215006
19.526149506620925
19.526224025156473
19.526286339994343
19.52633566202316
19.52637135780982
19.52639296388176
19.526400197571384
19.561575490674414
19.56158208663739
19.561601800285224
19.561634410350475
19.561679552403497
19.561736724501788
19.56180529598374
19.561884515990904
19.56197352527028
19.562071365940085
19.56217699420245
19.56228929108697
19.562407072700246
19.56252910175818
19.562654097688927
19.562780745908192
19.562907708294237
19.563033633269807
19.563157166522853
19.563276962580318
19.563391697268614
19.563500082049103
19.56360087787343
19.563692912313197
19.56377509561432
19.56384643811817
19.563906067280957
19.56395324354018
19.56398737494712
19.56400802935774
19.5640149436178
19.59230986006678
19.592316225323362
19.592335250534273
19.592366725287686
19.59241030264373
19.592465503965826
19.592531726643056
19.592608251493356
19.59269425336947
19.59278880991885
19.59289091338326
19.59299948073795
19.593113363620372
19.593231359765202
19.593352223300105
19.593474674437356
19.593597410459992
19.5937191163888
19.593838476247278
19.59395418504992
19.594064961469783
19.59416956207275
19.59426679479557
19.59435553526575
19.59443474176589
19.59450347123264
19.594560894646136
19.594606311177877
19.59463916112749
19.594659036603336
19.594665689515374
19.616133866910555
19.616140051345244
19.616158536839208
19.61618912109437
19.616231470276855
19.616285123283276
19.6163494987161
19.61642390150806
19.616507532682988
19.61659949740482
19.616698816115683
19.616804434228747
19.616915231803585
19.617030034875715
19.617147625849064
19.617266753440358
19.617386143977704
19.617504512430532
19.617620574004675
19.61773305636609
19.61784071239496
19.617942334286212
19.618036766705764
19.618122922481025
19.618199796751966
19.618266481929002
19.61832218190778
19.61836622499135
19.61839807562671
19.618417344022692
19.61842379330784
19.633106286701988
19.63311234111874
19.63313043846706
19.633160382086693
19.63320184726786
19.633254385148938
19.633317429200567
19.633390301339322
19.63347222112705
19.633562313348
19.63365961869866
19.633763103173976
19.633871667560104
19.63398415867311
19.634099379793913
19.634216100756575
19.634333069426827
19.634449022943787
19.634562699503633
19.634672850706803
19.634778254336528
19.634877728336434
19.634970143722576
19.635054439825783
19.635129637879224
19.63519485526604
19.635249318941245
19.635292377534043
19.635323512285463
19.635342345962425
19.635348649464348
19.643271438530064
19.643277414558646
19.643295277867008
19.64332483511968
19.643365766994382
19.643417631871607
19.64347987204014
19.64355181952109
19.643632704946725
19.643721664867705
19.6438177521836
19.643919945349463
19.64402715775855
19.64413824892068
19.644252034912167
19.644367298536555
19.644482800894092
19.6445972927325
19.64470952632522
19.644818267875806
19.644922310296554
19.645020487101945
19.645111685168942
19.64519485971091
19.64526904753401
19.645333380871264
19.645387100346582
19.64542956660598
19.64546027079814
19.645478843086767
19.64548505894358
19.646656713406696
19.646662663239777
19.646680448333335
19.646709876450956
19.646750630052463
19.646802269916233
19.646864241254253
19.646935879442655
19.647016418795975
19.647104999786837
19.64720067939151
19.64730244023723
19.647409199948253
19.64751982230312
19.647633127687875
19.647747903278677
19.64786291463884
19.64797691710298
19.64808866768376
19.64819693749256
19.64830052451591
19.648398267478935
19.64848905855458
19.648571858247863
19.648645708543068
19.64870974660212
19.648763217578793
19.64880548609623
19.648836046578758
19.64885453163366
19.64886071824234
