# vtk DataFile Version 2.0
Unstructured Grid Example
ASCII
DATASET UNSTRUCTURED_GRID

POINTS 961 float
0.400000004 0.01999999956 0
0.3866666556 0.01999999956 0
0.3733333348 0.01999999956 0
0.3600000144 0.01999999956 0
0.346666664 0.01999999956 0
0.3333333432 0.01999999956 0
0.3199999928 0.01999999956 0
0.3066666724 0.01999999956 0
0.293333322 0.01999999956 0
0.2800000012 0.01999999956 0
0.2666666804 0.01999999956 0
0.25333333 0.01999999956 0
0.2399999948 0.01999999956 0
0.226666674 0.01999999956 0
0.2133333384 0.01999999956 0
0.2000000028 0.01999999956 0
0.1866666676 0.01999999956 0
0.173333332 0.01999999956 0
0.1599999964 0.01999999956 0
0.1466666608 0.01999999956 0
0.1333333404 0.01999999956 0
0.1199999972 0.01999999956 0
0.1066666692 0.01999999956 0
0.0933333336 0.01999999956 0
0.0799999984 0.01999999956 0
0.06666667 0.01999999956 0
0.0533333348 0.01999999956 0
0.03999999912 0.01999999956 0
0.02666666732 0.01999999956 0
0.01333333364 0.01999999956 0
0.0 0.01999999956 0
0.400000004 0.00666666684 0
0.3866666556 0.00666666684 0
0.3733333348 0.00666666684 0
0.3600000144 0.00666666684 0
0.346666664 0.00666666684 0
0.3333333432 0.00666666684 0
0.3199999928 0.00666666684 0
0.3066666724 0.00666666684 0
0.293333322 0.00666666684 0
0.2800000012 0.00666666684 0
0.2666666804 0.00666666684 0
0.25333333 0.00666666684 0
0.2399999948 0.00666666684 0
0.226666674 0.00666666684 0
0.2133333384 0.00666666684 0
0.2000000028 0.00666666684 0
0.1866666676 0.00666666684 0
0.173333332 0.00666666684 0
0.1599999964 0.00666666684 0
0.1466666608 0.00666666684 0
0.1333333404 0.00666666684 0
0.1199999972 0.00666666684 0
0.1066666692 0.00666666684 0
0.0933333336 0.00666666684 0
0.0799999984 0.00666666684 0
0.06666667 0.00666666684 0
0.0533333348 0.00666666684 0
0.03999999912 0.00666666684 0
0.02666666732 0.00666666684 0
0.01333333364 0.00666666684 0
0.0 0.00666666684 0
0.400000004 -0.00666666684 0
0.3866666556 -0.00666666684 0
0.3733333348 -0.00666666684 0
0.3600000144 -0.00666666684 0
0.346666664 -0.00666666684 0
0.3333333432 -0.00666666684 0
0.3199999928 -0.00666666684 0
0.3066666724 -0.00666666684 0
0.293333322 -0.00666666684 0
0.2800000012 -0.00666666684 0
0.2666666804 -0.00666666684 0
0.25333333 -0.00666666684 0
0.2399999948 -0.00666666684 0
0.226666674 -0.00666666684 0
0.2133333384 -0.00666666684 0
0.2000000028 -0.00666666684 0
0.1866666676 -0.00666666684 0
0.173333332 -0.00666666684 0
0.1599999964 -0.00666666684 0
0.1466666608 -0.00666666684 0
0.1333333404 -0.00666666684 0
0.1199999972 -0.00666666684 0
0.1066666692 -0.00666666684 0
0.0933333336 -0.00666666684 0
0.0799999984 -0.00666666684 0
0.06666667 -0.00666666684 0
0.0533333348 -0.00666666684 0
0.03999999912 -0.00666666684 0
0.02666666732 -0.00666666684 0
0.01333333364 -0.00666666684 0
0.0 -0.00666666684 0
0.400000004 -0.01999999956 0
0.3866666556 -0.01999999956 0
0.3733333348 -0.01999999956 0
0.3600000144 -0.01999999956 0
0.346666664 -0.01999999956 0
0.3333333432 -0.01999999956 0
0.3199999928 -0.01999999956 0
0.3066666724 -0.01999999956 0
0.293333322 -0.01999999956 0
0.2800000012 -0.01999999956 0
0.2666666804 -0.01999999956 0
0.25333333 -0.01999999956 0
0.2399999948 -0.01999999956 0
0.226666674 -0.01999999956 0
0.2133333384 -0.01999999956 0
0.2000000028 -0.01999999956 0
0.1866666676 -0.01999999956 0
0.173333332 -0.01999999956 0
0.1599999964 -0.01999999956 0
0.1466666608 -0.01999999956 0
0.1333333404 -0.01999999956 0
0.1199999972 -0.01999999956 0
0.1066666692 -0.01999999956 0
0.0933333336 -0.01999999956 0
0.0799999984 -0.01999999956 0
0.06666667 -0.01999999956 0
0.0533333348 -0.01999999956 0
0.03999999912 -0.01999999956 0
0.02666666732 -0.01999999956 0
0.01333333364 -0.01999999956 0
0.0 -0.01999999956 0
0.400000004 -0.03333333508 0
0.3866666556 -0.03333333508 0
0.3733333348 -0.03333333508 0
0.3600000144 -0.03333333508 0
0.346666664 -0.03333333508 0
0.3333333432 -0.03333333508 0
0.3199999928 -0.03333333508 0
0.3066666724 -0.03333333508 0
0.293333322 -0.03333333508 0
0.2800000012 -0.03333333508 0
0.2666666804 -0.03333333508 0
0.25333333 -0.03333333508 0
0.2399999948 -0.03333333508 0
0.226666674 -0.03333333508 0
0.2133333384 -0.03333333508 0
0.2000000028 -0.03333333508 0
0.1866666676 -0.03333333508 0
0.173333332 -0.03333333508 0
0.1599999964 -0.03333333508 0
0.1466666608 -0.03333333508 0
0.1333333404 -0.03333333508 0
0.1199999972 -0.03333333508 0
0.1066666692 -0.03333333508 0
0.0933333336 -0.03333333508 0
0.0799999984 -0.03333333508 0
0.06666667 -0.03333333508 0
0.0533333348 -0.03333333508 0
0.03999999912 -0.03333333508 0
0.02666666732 -0.03333333508 0
0.01333333364 -0.03333333508 0
0.0 -0.03333333508 0
0.400000004 -0.0466666668 0
0.3866666556 -0.0466666668 0
0.3733333348 -0.0466666668 0
0.3600000144 -0.0466666668 0
0.346666664 -0.0466666668 0
0.3333333432 -0.0466666668 0
0.3199999928 -0.0466666668 0
0.3066666724 -0.0466666668 0
0.293333322 -0.0466666668 0
0.2800000012 -0.0466666668 0
0.2666666804 -0.0466666668 0
0.25333333 -0.0466666668 0
0.2399999948 -0.0466666668 0
0.226666674 -0.0466666668 0
0.2133333384 -0.0466666668 0
0.2000000028 -0.0466666668 0
0.1866666676 -0.0466666668 0
0.173333332 -0.0466666668 0
0.1599999964 -0.0466666668 0
0.1466666608 -0.0466666668 0
0.1333333404 -0.0466666668 0
0.1199999972 -0.0466666668 0
0.1066666692 -0.0466666668 0
0.0933333336 -0.0466666668 0
0.0799999984 -0.0466666668 0
0.06666667 -0.0466666668 0
0.0533333348 -0.0466666668 0
0.03999999912 -0.0466666668 0
0.02666666732 -0.0466666668 0
0.01333333364 -0.0466666668 0
0.0 -0.0466666668 0
0.400000004 -0.0599999988 0
0.3866666556 -0.0599999988 0
0.3733333348 -0.0599999988 0
0.3600000144 -0.0599999988 0
0.346666664 -0.0599999988 0
0.3333333432 -0.0599999988 0
0.3199999928 -0.0599999988 0
0.3066666724 -0.0599999988 0
0.293333322 -0.0599999988 0
0.2800000012 -0.0599999988 0
0.2666666804 -0.0599999988 0
0.25333333 -0.0599999988 0
0.2399999948 -0.0599999988 0
0.226666674 -0.0599999988 0
0.2133333384 -0.0599999988 0
0.2000000028 -0.0599999988 0
0.1866666676 -0.0599999988 0
0.173333332 -0.0599999988 0
0.1599999964 -0.0599999988 0
0.1466666608 -0.0599999988 0
0.1333333404 -0.0599999988 0
0.1199999972 -0.0599999988 0
0.1066666692 -0.0599999988 0
0.0933333336 -0.0599999988 0
0.0799999984 -0.0599999988 0
0.06666667 -0.0599999988 0
0.0533333348 -0.0599999988 0
0.03999999912 -0.0599999988 0
0.02666666732 -0.0599999988 0
0.01333333364 -0.0599999988 0
0.0 -0.0599999988 0
0.400000004 -0.0733333304 0
0.3866666556 -0.0733333304 0
0.3733333348 -0.0733333304 0
0.3600000144 -0.0733333304 0
0.346666664 -0.0733333304 0
0.3333333432 -0.0733333304 0
0.3199999928 -0.0733333304 0
0.3066666724 -0.0733333304 0
0.293333322 -0.0733333304 0
0.2800000012 -0.0733333304 0
0.2666666804 -0.0733333304 0
0.25333333 -0.0733333304 0
0.2399999948 -0.0733333304 0
0.226666674 -0.0733333304 0
0.2133333384 -0.0733333304 0
0.2000000028 -0.0733333304 0
0.1866666676 -0.0733333304 0
0.173333332 -0.0733333304 0
0.1599999964 -0.0733333304 0
0.1466666608 -0.0733333304 0
0.1333333404 -0.0733333304 0
0.1199999972 -0.0733333304 0
0.1066666692 -0.0733333304 0
0.0933333336 -0.0733333304 0
0.0799999984 -0.0733333304 0
0.06666667 -0.0733333304 0
0.0533333348 -0.0733333304 0
0.03999999912 -0.0733333304 0
0.02666666732 -0.0733333304 0
0.01333333364 -0.0733333304 0
0.0 -0.0733333304 0
0.400000004 -0.086666666 0
0.3866666556 -0.086666666 0
0.3733333348 -0.086666666 0
0.3600000144 -0.086666666 0
0.346666664 -0.086666666 0
0.3333333432 -0.086666666 0
0.3199999928 -0.086666666 0
0.3066666724 -0.086666666 0
0.293333322 -0.086666666 0
0.2800000012 -0.086666666 0
0.2666666804 -0.086666666 0
0.25333333 -0.086666666 0
0.2399999948 -0.086666666 0
0.226666674 -0.086666666 0
0.2133333384 -0.086666666 0
0.2000000028 -0.086666666 0
0.1866666676 -0.086666666 0
0.173333332 -0.086666666 0
0.1599999964 -0.086666666 0
0.1466666608 -0.086666666 0
0.1333333404 -0.086666666 0
0.1199999972 -0.086666666 0
0.1066666692 -0.086666666 0
0.0933333336 -0.086666666 0
0.0799999984 -0.086666666 0
0.06666667 -0.086666666 0
0.0533333348 -0.086666666 0
0.03999999912 -0.086666666 0
0.02666666732 -0.086666666 0
0.01333333364 -0.086666666 0
0.0 -0.086666666 0
0.400000004 -0.1000000016 0
0.3866666556 -0.1000000016 0
0.3733333348 -0.1000000016 0
0.3600000144 -0.1000000016 0
0.346666664 -0.1000000016 0
0.3333333432 -0.1000000016 0
0.3199999928 -0.1000000016 0
0.3066666724 -0.1000000016 0
0.293333322 -0.1000000016 0
0.2800000012 -0.1000000016 0
0.2666666804 -0.1000000016 0
0.25333333 -0.1000000016 0
0.2399999948 -0.1000000016 0
0.226666674 -0.1000000016 0
0.2133333384 -0.1000000016 0
0.2000000028 -0.1000000016 0
0.1866666676 -0.1000000016 0
0.173333332 -0.1000000016 0
0.1599999964 -0.1000000016 0
0.1466666608 -0.1000000016 0
0.1333333404 -0.1000000016 0
0.1199999972 -0.1000000016 0
0.1066666692 -0.1000000016 0
0.0933333336 -0.1000000016 0
0.0799999984 -0.1000000016 0
0.06666667 -0.1000000016 0
0.0533333348 -0.1000000016 0
0.03999999912 -0.1000000016 0
0.02666666732 -0.1000000016 0
0.01333333364 -0.1000000016 0
0.0 -0.1000000016 0
0.400000004 -0.1133333372 0
0.3866666556 -0.1133333372 0
0.3733333348 -0.1133333372 0
0.3600000144 -0.1133333372 0
0.346666664 -0.1133333372 0
0.3333333432 -0.1133333372 0
0.3199999928 -0.1133333372 0
0.3066666724 -0.1133333372 0
0.293333322 -0.1133333372 0
0.2800000012 -0.1133333372 0
0.2666666804 -0.1133333372 0
0.25333333 -0.1133333372 0
0.2399999948 -0.1133333372 0
0.226666674 -0.1133333372 0
0.2133333384 -0.1133333372 0
0.2000000028 -0.1133333372 0
0.1866666676 -0.1133333372 0
0.173333332 -0.1133333372 0
0.1599999964 -0.1133333372 0
0.1466666608 -0.1133333372 0
0.1333333404 -0.1133333372 0
0.1199999972 -0.1133333372 0
0.1066666692 -0.1133333372 0
0.0933333336 -0.1133333372 0
0.0799999984 -0.1133333372 0
0.06666667 -0.1133333372 0
0.0533333348 -0.1133333372 0
0.03999999912 -0.1133333372 0
0.02666666732 -0.1133333372 0
0.01333333364 -0.1133333372 0
0.0 -0.1133333372 0
0.400000004 -0.1266666652 0
0.3866666556 -0.1266666652 0
0.3733333348 -0.1266666652 0
[...]
POINT_DATA 961
SCALARS Temp float 1
LOOKUP_TABLE default
3.529298086558039
3.6764021757317535
3.7941818086789043
3.8889548520276356
3.964453984706206
4.023826268887564
4.069870572565207
4.10508754951203
4.131681110274113
4.151547474406518
4.166285013562069
4.177215788493966
4.18542134267931
4.19179076624117
4.197072031662786
4.201925369544662
4.206980319624819
4.212893540000339
4.220409395717849
4.230424042312311
4.244052915679727
4.262702331661272
4.288138242759907
4.322555498210478
4.368635030884145
4.429591851637593
4.509216094842239
4.611927923214559
4.742921479538014
4.908531567277112
5.119441606281529
3.57700860826831
3.71983646239196
3.8365066785139934
3.930709732428792
4.005905435614215
4.0651186713299285
4.111089309891955
4.146284019513282
4.17288553190621
4.192776645121867
4.207547278310656
4.2185144648574555
4.226757115360388
4.233163263464011
4.238480860413984
4.243370769457198
4.248463448234884
4.25441646852125
4.2619747836105795
4.272034412745415
4.2857094110284795
4.304402674844496
4.329873711172121
4.364306254877269
4.4103631131416465
4.471230076084969
4.550649001955044
4.652955216731757
4.783159880206408
4.947241686955722
5.1516211195086115
5.698847074071258
5.7234551085183245
5.791432543734931
5.859301303443126
5.919447314888651
5.9701135852469855
6.011533186921003
6.044677870697796
6.0707755977933076
6.0910869231330205
6.106797574868057
6.118971946814728
6.128543052586552
6.1363252203074605
6.143040527665274
6.149353621031265
6.155911740999404
6.1633879062691985
6.172525676386211
6.18418402875981
6.199380021652962
6.2193249334377265
6.24544695297346
6.279389072256653
6.322962371700843
6.378018190573787
6.44615857217048
6.528070586759968
6.621741148541362
6.716833781333136
6.751253721068059
7.632460260357881
7.646378344534838
7.681460672354568
7.726766647769291
7.771929535003396
7.812900089576126
7.84824386189585
7.877779530723618
7.901929484802295
7.921389728467872
7.936954031979083
7.949420430218113
7.959546896138389
7.968037632664998
7.975548498921038
7.982704549040161
7.990124922969458
7.998451448421205
8.008378019434828
8.020677532209078
8.036222093010238
8.055990349902977
8.081051752318254
8.112512563036432
8.151395788080324
8.198404963364345
8.253466673153651
8.31480342577259
8.376959806774689
8.42540830305025
8.444719528272268
9.470342259260159
9.478224281994779
9.499757889695191
9.52961997286213
9.562404285337035
9.594235763364601
9.623133568139433
9.648289803136313
9.669585274957765
9.687285173345487
9.701854469446172
9.7138474754591
9.723845629942936
9.732427066432395
9.740156916629932
9.74759112069491
9.75528845335036
9.76382638877474
9.773817011822603
9.785918841332398
9.80083939493104
9.819321531694245
9.842102932512688
9.869833713286535
9.90292695652115
9.941302360765778
9.983955478889905
10.02825691747886
10.068893851141368
10.098347762522643
10.109154409183843
11.230230168205233
11.23523362369061
11.249195927322678
11.269495449372375
11.292999862312207
11.317052279837169
11.33985898142131
11.36044375065089
11.378416448996726
11.393768828604436
11.406725217493122
11.417641099411782
11.426938820127852
11.43507043044857
11.442499429445222
11.449695323949022
11.457136097539827
11.465314206524877
11.47474212500269
11.485953125363219
11.499492136641539
11.515890206187239
11.535613502425917
11.558975636351589
11.585997319054973
11.61619565386859
11.648291498486298
11.679868499445286
11.707289222959897
11.726221343169897
11.733019253554819
12.925531978825752
12.928821825377415
12.93814777387297
12.952077624070677
12.968774241837789
12.986487588727643
13.003862920597747
13.020022320215952
13.034508062950591
13.047176936450462
13.058100941013276
13.067489004939631
13.075631553673002
13.082864681574218
13.089549253004783
13.096060678358366
13.102785434622902
13.110120501313029
13.118472095220838
13.12824980126151
13.139851639010343
13.15363490675043
13.169866381834824
13.188645620955128
13.209795262673802
13.232719272539322
13.256249298078512
13.278555003459111
13.297247118879291
13.309799546886003
13.314234401010667
14.567738336099353
14.569902985429604
14.57609606708977
14.58550706082016
14.597044193972092
14.609594091847338
14.622216431182794
14.634235463163725
14.64524529583002
14.655067397205682
14.66369411537538
14.671236093966215
14.677880762386279
14.683862936634334
14.689445744100633
14.69490941051713
14.700545162067295
14.70665128799907
14.713528470334497
14.721471273409994
14.730752401953891
14.741596165050543
14.754137354460505
14.768363326868517
14.784039671550742
14.80062861790347
14.81722550758151
14.832559592271092
14.845115504881651
14.853399403190853
14.856298597026575
16.16805941519828
16.16940924365612
16.173294203644055
16.179264018505336
16.186693786796447
16.19491811310752
16.203343695446442
16.211515279215277
16.2191352820953
16.226050896526722
16.23222624556071
16.23771159540827
16.242616485348456
16.2470891816945
16.251302275176737
16.255443280181392
16.259708590611567
16.264298824626778
16.26941357138343
16.275243414999036
16.28195701723853
16.289681160085525
16.298471925377683
16.308277020860466
16.318891955166396
16.32991921709831
16.340747614923913
16.35057570636404
16.35850010085554
16.363668981953012
16.36546698242519
17.737835734822227
17.73853633017863
17.740561329374184
17.743698598539446
17.747648220630364
17.75208213205576
17.756697472731105
17.761251610637597
17.765576686690753
17.769577830669242
17.773222304169273
17.776525375319004
17.779536870878665
17.782330198715258
17.784994130854695
17.787626985428215
17.790332467534526
17.793216176701875
17.796381758831835
17.799925612109945
17.803929053650556
17.80844702047922
17.813492678187842
17.819018530806687
17.824896196920214
17.830900188389958
17.836704058733236
17.841898702838876
17.846039355090074
17.8487181432708
17.84964598616583
19.28862799381767
19.28875545477103
19.28912893074658
19.289723277543814
19.290501364791048
19.291419797479413
19.292434715028108
19.29350648595952
19.29460279512249
19.295700038858712
19.296783435304565
19.29784623987121
19.29888849578665
19.29991562079519
19.3009369679962
19.301964434148783
19.303011126225563
19.304090025212318
19.305212588241947
19.306387224200826
19.307617600100365
19.308900798763464
19.310225401010612
19.31156976741399
19.312900872215394
19.314174288503363
19.315335949031386
19.31632616626915
19.31708593396057
19.31756474717607
19.3177283920719
19.374608462865897
19.374708822349685
19.375003872098656
19.375476463906832
19.37610089487903
19.376846462598415
19.377681246429137
19.37857538701653
19.37950349205466
19.380445986557348
19.381389572996333
19.38232697271186
19.38325621093325
19.384179658480605
19.385102943367393
19.38603381329654
19.3869809878227
19.387952980185478
19.388956873723394
19.38999703440266
19.391073761393642
19.39218193012706
19.393309715846964
19.39443763044605
19.395538114623278
19.39657605650035
19.397510544948304
19.39829801729309
19.39889665973046
19.399271487026187
19.399399163658252
19.460026046255013
19.460105643553874
19.46034026025832
19.460717950467746
19.461220600022912
19.461826199031314
19.462511351173646
19.46325356390209
19.464033063084337
19.464833948640553
19.465644748209392
19.466458425061482
19.467271992697142
19.46808587772424
19.468903113171347
19.469728435550714
19.470567334739187
19.471425060657804
19.472305598436446
19.4732106217015
19.474138449646773
19.475083072780045
19.47603332762546
19.476972400300028
19.477877810434244
19.4787220953335
19.479474331125097
19.48010251122513
19.480576616408566
19.48087197201831
19.480972317486298
19.544957183537004
19.545020383041688
19.54520703521158
19.545508671368644
19.545912332920572
19.546402061863613
19.5469605958599
19.547570976035985
19.548217895341093
19.548888631389005
19.549573575314632
19.550266357332596
19.550963654445134
19.551664771107212
19.55237104821571
19.553085160849925
19.553810353941707
19.55454963182357
19.555304927065364
19.55607627255716
19.55686101208498
19.557653111934055
19.55844263831166
19.55921553298878
19.559953775238917
19.560636056684817
19.56123901837172
19.561739017381413
19.562114278142506
19.56234714945368
19.562426108665633
19.62946936650029
19.62951923613969
19.62966673277816
19.62990576367305
19.630226940472877
19.630618581744272
19.631067879779415
19.631562039974398
19.6320892776243
19.632639547977202
19.633205003874398
19.633780158515286
19.634361800028277
19.634948715222
19.63554125831368
19.636140812061587
19.636749185501493
19.637367968555708
19.637997873659803
19.638638093360072
19.639285710180193
19.639935213150565
19.64057817007306
19.641203150523477
19.641795947603388
19.64234017016885
19.642818213551806
19.643212561517384
19.643507304868557
19.643689684890163
19.64375143301516
19.713623802279862
19.713662537491825
19.713777206873168
19.71396336809127
19.714214141908695
19.714520906073687
19.71487411687699
19.71526412842723
19.71568193122766
19.716119714315514
19.716571240143175
19.717032003538748
19.717499200200503
19.7179715413411
19.718448937607327
19.718932088631906
19.719422015369883
19.719919555340866
19.720424849962022
19.720936852133576
19.721452886810507
19.721968309032995
19.722476295576378
19.722967837789948
19.72343196077334
19.723856209700276
19.72422739450358
19.72453254713343
19.724760004421054
19.724900483407886
19.72494799903392
19.78804776185857
19.788077173363114
19.78816429159158
19.78830588300113
19.78849692296216
19.788731081713532
19.789001306842895
19.7893004128272
19.789621623757355
19.789958997335614
19.79030771912588
19.790664239865805
19.791026269647773
19.791392652492377
19.791763136243794
19.792138065006363
19.79251802380403
19.79290345319465
19.79329425922449
19.793689443235287
19.794086778748337
19.794482570109004
19.794871518905236
19.795246745659743
19.79559997926628
19.79592193744177
19.796202884327464
19.796433326712272
19.796604784782595
19.796710544875232
19.796746294049093
19.845428010724184
19.845449895280662
19.84551475118999
19.84562026430841
19.845762828529285
19.84593788205675
19.846140314437655
19.846364883279293
19.846606604287864
19.846861062129562
19.847124632824787
19.84739459457282
19.847669134097167
19.847947263342995
19.848228655785476
19.84851342210261
19.8488018479991
19.849094108725076
19.849389981054358
19.849688572736667
19.84998809089459
19.850285675382114
19.850577315158286
19.850857880374146
19.851121275304337
19.851360725032826
19.851569181847015
19.851739821236013
19.851866581706588
19.851944685078088
19.851971070841394
19.888833838953293
19.88884982217107
19.888897210896054
19.888974376048864
19.889078773004595
19.889207171295553
19.8893559348843
19.889521311721225
19.889699708449992
19.8898879128164
19.890083256673186
19.890283701214425
19.890487847813816
19.890694883672275
19.890904467795274
19.891116571275596
19.89133128881812
19.89154863282424
19.891768326237656
19.891989609721655
19.892211079413915
19.892430574173368
19.89264512448249
19.892850985131595
19.893043752892726
19.89321857613105
19.893370444197995
19.893494534196552
19.893586583208734
19.89364324322899
19.89366237513683
19.921092398084483
19.92110387317257
19.921137910120805
19.921193379997206
19.921268515753823
19.921361067076376
19.921468490599146
19.921588147863194
19.921717495253752
19.921854239734667
19.921996455271344
19.922142646000033
19.922291757559307
19.92244314222608
19.92259648101072
19.922751672389303
19.922908699925227
19.923067487230377
19.92322775243662
19.92338887383108
19.923549778540274
19.923708867660075
19.92386398581933
19.92401244993801
19.924151136516564
19.924276631070395
19.92438543004052
19.92447417907843
19.92453992592026
19.924580359367926
19.92459400592596
19.944674996924743
19.944683107114052
19.944707172776084
19.944746423057815
19.94479964916048
19.94486530738022
19.94494164641369
19.945026840640374
19.945119119244733
19.94521687318626
19.94531873651368
19.945423631799812
19.94553078014851
19.945639679196947
19.945750050829197
19.94586176517933
19.945974749583712
19.94608888858152
19.946203923822136
19.94631936232685
19.94643440155696
19.946547880567323
19.946658262373347
19.946763657259126
19.946861885650215
19.946950582355996
19.947027334899268
19.947089844678224
19.947136096353415
19.947164516720783
19.947174104707702
19.9616526605178
19.96165831082947
19.961675083504396
19.961702459390857
19.961739623019987
19.96178553031804
19.961838992686467
19.961898765465065
19.961963634357417
19.9620324876441
19.96210437187135
19.96217852372241
19.962254378093192
19.962331554434407
19.962409822234534
19.96248905004272
19.96256914402907
19.96264998035959
19.962731337663417
19.96281283555153
19.962893885053386
19.962973657274667
19.963051073499493
19.963124823082374
19.963193407638375
19.963255212389562
19.963308599392818
19.963352014959828
19.963384101627796
19.963403802497645
19.9634104461983
19.97370101195293
19.973704897497136
19.973716435680874
19.973735281277328
19.973760891167355
19.973792568309914
19.973829516587465
19.973870898747062
19.973915893430224
19.973963743165797
19.974013791851398
19.97406550663772
19.97411848407922
19.974172441788
19.97422719599426
19.97428262791312
19.974338642997356
19.974395126002833
19.974451896213075
19.974508666929935
19.974565013216683
19.974620352102352
19.974673937234456
19.9747248720813
19.974772140351046
19.974814654008927
19.974851315185315
19.974881086821053
19.974903065777305
19.97491655057421
19.974921096321342
19.982135300871967
19.98213794200467
19.98214578759133
19.98215861068172
19.982176053706308
19.982197656716625
19.9822228927529
19.982251205335974
19.982282045617808
19.982314903833263
19.982349334142548
19.982384969384782
19.982421525574583
19.982458796882106
19.982496641250783
19.982534958539034
19.98257366391851
19.98261265848802
19.98265180005326
19.982690876845666
19.982729586839707
19.982767525436703
19.982804182717064
19.98283895289227
19.98287115487433
19.98290006411682
19.982924953183744
19.9829451376485
19.982960023293803
19.982969149623624
19.98297222501744
19.98796093708341
19.987962714941784
19.98796799790158
19.987976638232848
19.987988402851897
19.98800299128208
19.98802005823135
19.98803923759383
19.988060166379686
19.988082505076626
19.98810595389984
19.988130262585667
19.988155233580834
19.98818071907136
19.98820661188193
19.98823283145992
19.988259306749285
19.9882859572419
19.98831267417477
19.98833930371365
19.988365633869
19.98839138694182
19.988416218212247
19.988439722549675
19.98846144811576
19.988480917212772
19.988497652565748
19.98851120682898
19.98852119275755
19.9885273108959
19.988529371873828
19.99192782976995
19.991929018590234
19.991932552361558
19.991938335609476
19.991946217488927
19.991956003121214
19.99196746789488
19.991980372704603
19.99199447923176
19.992009563002675
19.992025423910665
19.992041892641108
19.99205883288473
19.99207613960771
19.992093733354587
19.992111551358636
19.992129536641194
19.99214762593247
19.99216573771009
19.99218376156034
19.9922015499943
19.99221891387386
19.992235621863284
19.99225140497363
19.99226596558889
19.992278990986343
19.99229017021513
19.992299212912354
19.992305868444593
19.9923099434019
19.992311315642382
19.99458214473058
19.9945829392985
19.994585301923976
19.99458917100336
19.99459444907048
19.99460100993409
19.994608707711443
19.994617386473177
19.994626889968195
19.994637069964572
19.994647793033362
19.994658944740326
19.994670431163957
19.994682177903822
19.99469412653593
19.994706229008255
19.99471844074554
19.994730712997505
19.994742985277608
19.994755178675607
19.994767190772734
19.994778892899205
19.99479012997137
19.994800723589037
19.994810477951724
19.99481918859331
19.994826653186514
19.994832683508143
19.994837117553466
19.994839830565432
19.99484074386443
19.99631116309364
19.996311701073715
19.996313301269463
19.99631592348331
19.996319504025656
19.996323960251328
19.99632919632061
19.996335109359737
19.99634159570678
19.996348556285483
19.99635590101657
19.996363551574127
19.9963714424309
19.996379520295662
19.996387741896076
19.996396070423454
19.99640447114562
19.996412906530583
19.99642133143885
19.996429688896384
19.996437906920168
19.99644589687402
19.996453553488763
19.996460756986544
19.996467376991948
19.996473278226773
19.996478327491786
19.996482401349343
19.996485393866532
19.99648722363896
19.996487839398597
19.997379756337057
19.99738013597115
19.997381265540696
19.99738311773163
19.997385649204034
19.997388803590383
19.997392515315635
19.99739671368766
19.997401327066825
19.997406286463352
19.997411528517606
19.997416997382086
19.997422645466344
19.997428433113523
19.997434327164395
19.99744029861983
19.997446319748217
19.997452360864838
19.997458387164436
19.997464355953316
19.99747021459841
19.99747589951349
19.99748133625869
19.99748644105117
19.997491123451187
19.99749529022127
19.997498850017195
19.997501718517917
19.997503823573595
19.997505109858853
19.9975055425784
19.997958082196355
19.99795837625794
19.997959251449277
19.99796068729035
19.997962651243892
19.99796510090826
19.9979679868195
19.997971255454342
19.997974852306026
19.99797872454328
19.99798282323096
19.997987104744556
19.997991531349832
19.997996070998866
19.99800069630097
19.9980053828246
19.998010106990662
19.998014843723578
19.998019564146105
19.998024233576373
19.998028810061957
19.998033243688177
19.99803747670795
19.998041444716147
19.998045078679265
19.998048307819143
19.998051063093214
19.998053280980336
19.998054907266393
19.998055900455718
19.998056234481986
19.998140754031844
19.99814102108837
19.998141815995304
19.998143120407796
19.998144905165084
19.998147132233477
19.99814975719225
19.998152731898884
19.99815600722417
19.99815953541905
19.99816327209772
19.998167177505444
19.998171217045716
19.998175361112356
19.998179584186264
19.998183863335928
19.998188176355093
19.998192499684905
19.998196806376786
19.99820106432678
19.9982052349906
19.99820927279035
19.998213125252096
19.998216734073146
19.998220036945668
19.9982229701355
19.998225471584846
19.998227484279802
19.998228959612753
19.9982298604084
19.998230163326244
