# vtk DataFile Version 2.0
Unstructured Grid Example
ASCII
DATASET UNSTRUCTURED_GRID

POINTS 961 float
0.400000004 0.01999999956 0
0.3866666556 0.01999999956 0
0.3733333348 0.01999999956 0
0.3600000144 0.01999999956 0
0.346666664 0.01999999956 0
0.3333333432 0.01999999956 0
0.3199999928 0.01999999956 0
0.3066666724 0.01999999956 0
0.293333322 0.01999999956 0
0.2800000012 0.01999999956 0
0.2666666804 0.01999999956 0
0.25333333 0.01999999956 0
0.2399999948 0.01999999956 0
0.226666674 0.01999999956 0
0.2133333384 0.01999999956 0
0.2000000028 0.01999999956 0
0.1866666676 0.01999999956 0
0.173333332 0.01999999956 0
0.1599999964 0.01999999956 0
0.1466666608 0.01999999956 0
0.1333333404 0.01999999956 0
0.1199999972 0.01999999956 0
0.1066666692 0.01999999956 0
0.0933333336 0.01999999956 0
0.0799999984 0.01999999956 0
0.06666667 0.01999999956 0
0.0533333348 0.01999999956 0
0.03999999912 0.01999999956 0
0.02666666732 0.01999999956 0
0.01333333364 0.01999999956 0
0.0 0.01999999956 0
0.400000004 0.00666666684 0
0.3866666556 0.00666666684 0
0.3733333348 0.00666666684 0
0.3600000144 0.00666666684 0
0.346666664 0.00666666684 0
0.3333333432 0.00666666684 0
0.3199999928 0.00666666684 0
0.3066666724 0.00666666684 0
0.293333322 0.00666666684 0
0.2800000012 0.00666666684 0
0.2666666804 0.00666666684 0
0.25333333 0.00666666684 0
0.2399999948 0.00666666684 0
0.226666674 0.00666666684 0
0.2133333384 0.00666666684 0
0.2000000028 0.00666666684 0
0.1866666676 0.00666666684 0
0.173333332 0.00666666684 0
0.1599999964 0.00666666684 0
0.1466666608 0.00666666684 0
0.1333333404 0.00666666684 0
0.1199999972 0.00666666684 0
0.1066666692 0.00666666684 0
0.0933333336 0.00666666684 0
0.0799999984 0.00666666684 0
0.06666667 0.00666666684 0
0.0533333348 0.00666666684 0
0.03999999912 0.00666666684 0
0.02666666732 0.00666666684 0
0.01333333364 0.00666666684 0
0.0 0.00666666684 0
0.400000004 -0.00666666684 0
0.3866666556 -0.00666666684 0
0.3733333348 -0.00666666684 0
0.3600000144 -0.00666666684 0
0.346666664 -0.00666666684 0
0.3333333432 -0.00666666684 0
0.3199999928 -0.00666666684 0
0.3066666724 -0.00666666684 0
0.293333322 -0.00666666684 0
0.2800000012 -0.00666666684 0
0.2666666804 -0.00666666684 0
0.25333333 -0.00666666684 0
0.2399999948 -0.00666666684 0
0.226666674 -0.00666666684 0
0.2133333384 -0.00666666684 0
0.2000000028 -0.00666666684 0
0.1866666676 -0.00666666684 0
0.173333332 -0.00666666684 0
0.1599999964 -0.00666666684 0
0.1466666608 -0.00666666684 0
0.1333333404 -0.00666666684 0
0.1199999972 -0.00666666684 0
0.1066666692 -0.00666666684 0
0.0933333336 -0.00666666684 0
0.0799999984 -0.00666666684 0
0.06666667 -0.00666666684 0
0.0533333348 -0.00666666684 0
0.03999999912 -0.00666666684 0
0.02666666732 -0.00666666684 0
0.01333333364 -0.00666666684 0
0.0 -0.00666666684 0
0.400000004 -0.01999999956 0
0.3866666556 -0.01999999956 0
0.3733333348 -0.01999999956 0
0.3600000144 -0.01999999956 0
0.346666664 -0.01999999956 0
0.3333333432 -0.01999999956 0
0.3199999928 -0.01999999956 0
0.3066666724 -0.01999999956 0
0.293333322 -0.01999999956 0
0.2800000012 -0.01999999956 0
0.2666666804 -0.01999999956 0
0.25333333 -0.01999999956 0
0.2399999948 -0.01999999956 0
0.226666674 -0.01999999956 0
0.2133333384 -0.01999999956 0
0.2000000028 -0.01999999956 0
0.1866666676 -0.01999999956 0
0.173333332 -0.01999999956 0
0.1599999964 -0.01999999956 0
0.1466666608 -0.01999999956 0
0.1333333404 -0.01999999956 0
0.1199999972 -0.01999999956 0
0.1066666692 -0.01999999956 0
0.0933333336 -0.01999999956 0
0.0799999984 -0.01999999956 0
0.06666667 -0.01999999956 0
0.0533333348 -0.01999999956 0
0.03999999912 -0.01999999956 0
0.02666666732 -0.01999999956 0
0.01333333364 -0.01999999956 0
0.0 -0.01999999956 0
0.400000004 -0.03333333508 0
0.3866666556 -0.03333333508 0
0.3733333348 -0.03333333508 0
0.3600000144 -0.03333333508 0
0.346666664 -0.03333333508 0
0.3333333432 -0.03333333508 0
0.3199999928 -0.03333333508 0
0.3066666724 -0.03333333508 0
0.293333322 -0.03333333508 0
0.2800000012 -0.03333333508 0
0.2666666804 -0.03333333508 0
0.25333333 -0.03333333508 0
0.2399999948 -0.03333333508 0
0.226666674 -0.03333333508 0
0.2133333384 -0.03333333508 0
0.2000000028 -0.03333333508 0
0.1866666676 -0.03333333508 0
0.173333332 -0.03333333508 0
0.1599999964 -0.03333333508 0
0.1466666608 -0.03333333508 0
0.1333333404 -0.03333333508 0
0.1199999972 -0.03333333508 0
0.1066666692 -0.03333333508 0
0.0933333336 -0.03333333508 0
0.0799999984 -0.03333333508 0
0.06666667 -0.03333333508 0
0.0533333348 -0.03333333508 0
0.03999999912 -0.03333333508 0
0.02666666732 -0.03333333508 0
0.01333333364 -0.03333333508 0
0.0 -0.03333333508 0
0.400000004 -0.0466666668 0
0.3866666556 -0.0466666668 0
0.3733333348 -0.0466666668 0
0.3600000144 -0.0466666668 0
0.346666664 -0.0466666668 0
0.3333333432 -0.0466666668 0
0.3199999928 -0.0466666668 0
0.3066666724 -0.0466666668 0
0.293333322 -0.0466666668 0
0.2800000012 -0.0466666668 0
0.2666666804 -0.0466666668 0
0.25333333 -0.0466666668 0
0.2399999948 -0.0466666668 0
0.226666674 -0.0466666668 0
0.2133333384 -0.0466666668 0
0.2000000028 -0.0466666668 0
0.1866666676 -0.0466666668 0
0.173333332 -0.0466666668 0
0.1599999964 -0.0466666668 0
0.1466666608 -0.0466666668 0
0.1333333404 -0.0466666668 0
0.1199999972 -0.0466666668 0
0.1066666692 -0.0466666668 0
0.0933333336 -0.0466666668 0
0.0799999984 -0.0466666668 0
0.06666667 -0.0466666668 0
0.0533333348 -0.0466666668 0
0.03999999912 -0.0466666668 0
0.02666666732 -0.0466666668 0
0.01333333364 -0.0466666668 0
0.0 -0.0466666668 0
0.400000004 -0.0599999988 0
0.3866666556 -0.0599999988 0
0.3733333348 -0.0599999988 0
0.3600000144 -0.0599999988 0
0.346666664 -0.0599999988 0
0.3333333432 -0.0599999988 0
0.3199999928 -0.0599999988 0
0.3066666724 -0.0599999988 0
0.293333322 -0.0599999988 0
0.2800000012 -0.0599999988 0
0.2666666804 -0.0599999988 0
0.25333333 -0.0599999988 0
0.2399999948 -0.0599999988 0
0.226666674 -0.0599999988 0
0.2133333384 -0.0599999988 0
0.2000000028 -0.0599999988 0
0.1866666676 -0.0599999988 0
0.173333332 -0.0599999988 0
0.1599999964 -0.0599999988 0
0.1466666608 -0.0599999988 0
0.1333333404 -0.0599999988 0
0.1199999972 -0.0599999988 0
0.1066666692 -0.0599999988 0
0.0933333336 -0.0599999988 0
0.0799999984 -0.0599999988 0
0.06666667 -0.0599999988 0
0.0533333348 -0.0599999988 0
0.03999999912 -0.0599999988 0
0.02666666732 -0.0599999988 0
0.01333333364 -0.0599999988 0
0.0 -0.0599999988 0
0.400000004 -0.0733333304 0
0.3866666556 -0.0733333304 0
0.3733333348 -0.0733333304 0
0.3600000144 -0.0733333304 0
0.346666664 -0.0733333304 0
0.3333333432 -0.0733333304 0
0.3199999928 -0.0733333304 0
0.3066666724 -0.0733333304 0
0.293333322 -0.0733333304 0
0.2800000012 -0.0733333304 0
0.2666666804 -0.0733333304 0
0.25333333 -0.0733333304 0
0.2399999948 -0.0733333304 0
0.226666674 -0.0733333304 0
0.2133333384 -0.0733333304 0
0.2000000028 -0.0733333304 0
0.1866666676 -0.0733333304 0
0.173333332 -0.0733333304 0
0.1599999964 -0.0733333304 0
0.1466666608 -0.0733333304 0
0.1333333404 -0.0733333304 0
0.1199999972 -0.0733333304 0
0.1066666692 -0.0733333304 0
0.0933333336 -0.0733333304 0
0.0799999984 -0.0733333304 0
0.06666667 -0.0733333304 0
0.0533333348 -0.0733333304 0
0.03999999912 -0.0733333304 0
0.02666666732 -0.0733333304 0
0.01333333364 -0.0733333304 0
0.0 -0.0733333304 0
0.400000004 -0.086666666 0
0.3866666556 -0.086666666 0
0.3733333348 -0.086666666 0
0.3600000144 -0.086666666 0
0.346666664 -0.086666666 0
0.3333333432 -0.086666666 0
0.3199999928 -0.086666666 0
0.3066666724 -0.086666666 0
0.293333322 -0.086666666 0
0.2800000012 -0.086666666 0
0.2666666804 -0.086666666 0
0.25333333 -0.086666666 0
0.2399999948 -0.086666666 0
0.226666674 -0.086666666 0
0.2133333384 -0.086666666 0
0.2000000028 -0.086666666 0
0.1866666676 -0.086666666 0
0.173333332 -0.086666666 0
0.1599999964 -0.086666666 0
0.1466666608 -0.086666666 0
0.1333333404 -0.086666666 0
0.1199999972 -0.086666666 0
0.1066666692 -0.086666666 0
0.0933333336 -0.086666666 0
0.0799999984 -0.086666666 0
0.06666667 -0.086666666 0
0.0533333348 -0.086666666 0
0.03999999912 -0.086666666 0
0.02666666732 -0.086666666 0
0.01333333364 -0.086666666 0
0.0 -0.086666666 0
0.400000004 -0.1000000016 0
0.3866666556 -0.1000000016 0
0.3733333348 -0.1000000016 0
0.3600000144 -0.1000000016 0
0.346666664 -0.1000000016 0
0.3333333432 -0.1000000016 0
0.3199999928 -0.1000000016 0
0.3066666724 -0.1000000016 0
0.293333322 -0.1000000016 0
0.2800000012 -0.1000000016 0
0.2666666804 -0.1000000016 0
0.25333333 -0.1000000016 0
0.2399999948 -0.1000000016 0
0.226666674 -0.1000000016 0
0.2133333384 -0.1000000016 0
0.2000000028 -0.1000000016 0
0.1866666676 -0.1000000016 0
0.173333332 -0.1000000016 0
0.1599999964 -0.1000000016 0
0.1466666608 -0.1000000016 0
0.1333333404 -0.1000000016 0
0.1199999972 -0.1000000016 0
0.1066666692 -0.1000000016 0
0.0933333336 -0.1000000016 0
0.0799999984 -0.1000000016 0
0.06666667 -0.1000000016 0
0.0533333348 -0.1000000016 0
0.03999999912 -0.1000000016 0
0.02666666732 -0.1000000016 0
0.01333333364 -0.1000000016 0
0.0 -0.1000000016 0
0.400000004 -0.1133333372 0
0.3866666556 -0.1133333372 0
0.3733333348 -0.1133333372 0
0.3600000144 -0.1133333372 0
0.346666664 -0.1133333372 0
0.3333333432 -0.1133333372 0
0.3199999928 -0.1133333372 0
0.3066666724 -0.1133333372 0
0.293333322 -0.1133333372 0
0.2800000012 -0.1133333372 0
0.2666666804 -0.1133333372 0
0.25333333 -0.1133333372 0
0.2399999948 -0.1133333372 0
0.226666674 -0.1133333372 0
0.2133333384 -0.1133333372 0
0.2000000028 -0.1133333372 0
0.1866666676 -0.1133333372 0
0.173333332 -0.1133333372 0
0.1599999964 -0.1133333372 0
0.1466666608 -0.1133333372 0
0.1333333404 -0.1133333372 0
0.1199999972 -0.1133333372 0
0.1066666692 -0.1133333372 0
0.0933333336 -0.1133333372 0
0.0799999984 -0.1133333372 0
0.06666667 -0.1133333372 0
0.0533333348 -0.1133333372 0
0.03999999912 -0.1133333372 0
0.02666666732 -0.1133333372 0
0.01333333364 -0.1133333372 0
0.0 -0.1133333372 0
0.400000004 -0.1266666652 0
0.3866666556 -0.1266666652 0
0.3733333348 -0.1266666652 0
[...]
POINT_DATA 961
SCALARS Temp float 1
LOOKUP_TABLE default
0.6726656435695104
0.6995321094583393
0.7188124329783201
0.73283110843323
0.7431026954281407
0.75066576139109
0.7562597017198198
0.7604167049738996
0.7635241196951833
0.7658657608912476
0.7676520531795842
0.7690409321210889
0.7701530938940775
0.7710838635695545
0.7719120504900935
0.7727069730874031
0.7735348916260427
0.7744649215563427
0.7755752458176887
0.77696022183253
0.7787390367760675
0.7810671026725442
0.7841505817505243
0.7882670245044903
0.7937930767162615
0.801243800662726
0.8113286963543079
0.8250336594491763
0.843745819534901
0.8694783033939106
0.9054244367149584
0.7099858737276066
0.7363303396056845
0.755403576836535
0.7693455140432999
0.7795818267683867
0.7871304098945425
0.792719983626909
0.7968776558565405
0.799988120320557
0.8023338106804
0.8041244423690869
0.8055176173687273
0.8066339138773219
0.8075686545005422
0.8084007103154711
0.8091994992781949
0.8100313949598029
0.8109656255191456
0.8120804690159543
0.8134703354625478
0.8152543825747728
0.8175878352376066
0.8206763965068908
0.8247966552363355
0.8303233951942994
0.837768131466456
0.8478335479536966
0.8614914508753974
0.8800996350814301
0.905569759439002
0.9406707105531824
2.457284327696928
2.4611981832045755
2.472106201758781
2.482166608715749
2.4904856715885986
2.497104458728784
2.502286678718308
2.5063170162731385
2.5094479897755613
2.5118891818228635
2.513810154403907
2.5153472410672557
2.5166109081260113
2.517692639499733
2.518671063829095
2.519617433025269
2.520600717452776
2.5216926029489297
2.522972659687021
2.524534004095253
2.5264897699946607
2.5289806032226907
2.532183309032206
2.5363203123707807
2.5416684539811554
2.5485626123975345
2.557381183739127
2.568474792113542
2.581897459838166
2.596447516703134
2.6016711443096368
4.182807102167077
4.18494291815586
4.190185000195854
4.196735104739867
4.202945464120942
4.2083295433480385
4.212808288437492
4.216457064222688
4.219400511586926
4.221769990481211
4.223687354594951
4.225260103153262
4.226581586473394
4.227733385989476
4.228788539239207
4.229815076477416
4.230879682383678
4.232051428975463
4.233405609696597
4.235027684880541
4.237017254556876
4.239491781805737
4.242589251386622
4.246468103919314
4.251300488887289
4.257250303759235
4.264416275422829
4.272691297426042
4.281423986431448
4.288414827169728
4.291263132037503
5.903233721591737
5.90437032035072
5.907442050286503
5.911601009541018
5.916029847324378
5.920191042465975
5.9238633600256385
5.9269945659264724
5.929614774525543
5.93178949534609
5.933595948154429
5.935111796410393
5.936410547315978
5.937560493554059
5.93862548749858
5.9396666757090575
5.940744728562765
5.941922277951158
5.943266377544218
5.94485076841077
5.9467575983389045
5.949077970268293
5.951910078985104
5.95535276737038
5.959490229208293
5.964360118363117
5.969890771691966
5.975785249485848
5.981324964956039
5.985418195202554
5.986933048752661
7.620585365646592
7.621277571218763
7.623192866959795
7.625934974850233
7.629045254044168
7.632157845009152
7.635049340531306
7.637618939853619
7.639843353832301
7.641742770486971
7.643359295845379
7.644744427629708
7.645952407204789
7.647037193715587
7.648051571053362
7.649047495952246
7.650077126923561
7.651194129475028
7.652454946246078
7.653919685392139
7.655652146103019
7.6577182492472105
7.660181627483505
7.663094498052981
7.66648071915582
7.670306777777867
7.674436272837137
7.678569553307593
7.682217253578692
7.684766527958142
7.685688089236095
9.335867073472194
9.33630785679804
9.337550511532159
9.339387418325208
9.34155904018247
9.34382833029294
9.346023378484459
9.348043422548763
9.349844953905729
9.35142302063757
9.352796032562829
9.353995239199755
9.355058198306226
9.356025141257852
9.356937251343886
9.357836149917564
9.358764077508221
9.359764354477882
9.360881774610064
9.362162552584115
9.363653341193192
9.365398660006473
9.367435757404072
9.369785695006659
9.37243912279314
9.375335808664163
9.378339615910178
9.381219812748975
9.38365909911164
9.3853104429122
9.385896383382663
11.049521921504635
11.049805740778892
11.050614732257953
11.051835587855006
11.05331864933713
11.054916026622726
11.05650840421329
11.058015503732067
11.059393874136807
11.06062869420074
11.06172480388284
11.062699327348252
11.06357646247113
11.064384196221603
11.06515245120288
11.06591220814504
11.066695215289265
11.06753393321379
11.068461405052044
11.06951071654207
11.070713644035035
11.072097999353351
11.073683040809202
11.075472376855267
11.077443985472623
11.079538102305852
11.081646227078302
11.083608063031914
11.085225472511407
11.08629818960681
11.086674686225583
12.761769997135744
12.76194506485923
12.762447722528034
12.763216731610196
12.76416841626858
12.765215816703884
12.76628401977231
12.767318206065418
12.768284929431122
12.769169098973997
12.76996941367463
12.770693941930372
12.771356638349522
12.771974935543584
12.772568235911452
12.773157062743783
12.77376262408297
12.774406541551315
12.775110516537886
12.775895689000201
12.776781411065421
12.777783129356902
12.778909041020956
12.78015535583036
12.781500308088953
12.782897968670182
12.78427418183688
12.785528196590949
12.78654339815577
12.787207723897394
12.787439219545156
14.472718566180207
14.47280998009498
14.473073897594421
14.473481974083477
14.473994640237034
14.474569448994004
14.475168256502862
14.475761574130342
14.476329951144564
14.476863171211871
14.477358403459311
14.477818144962425
14.478248449422926
14.478657610339656
14.479055268219483
14.479451848317183
14.479858212876564
14.480285397768888
14.480744311434151
14.481245265125285
14.481797192205143
14.482406414614625
14.483074823744051
14.483797476529743
14.484559806343078
14.485335106628584
14.486083442248608
14.486753453993622
14.487288162924504
14.487634530021367
14.487754592938652
16.182419068546842
16.18243817145646
16.18249429907005
16.182584125521785
16.18270276223669
16.182844528799393
16.183003714077117
16.18317516551835
16.18335464883875
16.18353897930298
16.18372599424241
16.183914424968776
16.18410372738959
16.184293909255363
16.184485366487362
16.184678733939908
16.184874749531545
16.185074120770224
16.185277384853205
16.18548475228293
16.18569592586195
16.18590989416188
16.186124702574787
16.186337233709022
16.186543037386684
16.18673629049909
16.186909975587486
16.187056355427874
16.187167762055722
16.187237609008104
16.187261420765832
16.277810236180553
16.277825967338416
16.27787236108928
16.277947145067113
16.27804691875933
16.27816762469466
16.278305039663557
16.27845518655277
16.278614622561065
16.278780584832155
16.278951025027112
16.27912455897357
16.279300368873812
16.279478086491125
16.279657668861766
16.27983927470821
16.280023145065606
16.28020948262858
16.280398326441997
16.280589417643206
16.280782054094487
16.28097493841945
16.281166026464184
16.281352405262385
16.281530228837724
16.28169476307541
16.281840584417647
16.28196196084507
16.282053404426946
16.282110324401692
16.282129656893392
16.37310299630313
16.373116201905813
16.37315526036492
16.37321857359589
16.37330371530418
16.373407727623565
16.37352744386462
16.373659775306344
16.37380193175628
16.37395155331328
16.374106767410325
16.374266179889542
16.374428822670872
16.374594077718026
16.37476158585104
16.374931148652387
16.375102629061693
16.375275848615622
16.375450481590214
16.375625945558504
16.375801289686354
16.375975087478828
16.376145341189407
16.376309421552016
16.37646406022863
16.376605426277088
16.37672930700977
16.37683140009576
16.376907699540382
16.37695492478647
16.376970917691978
16.46830213584301
16.468313401973628
16.468346799689737
16.46840117529499
16.468474756081257
16.46856534196687
16.468670521327304
16.468787871298872
16.46891512299233
16.469050271000786
16.469191633703772
16.46933786436098
16.469487926222932
16.469641044814306
16.469796642834865
16.469954264838808
16.47011349784703
16.470273887748863
16.47043485384844
16.4705956032415
16.470755048019686
16.470911732332027
16.47106377516422
16.471208847048132
16.47134418998726
16.47146669936258
16.471573075482713
16.47166004289226
16.471724621139032
16.471764411864
16.471777855820285
16.56341125453334
16.563420999025244
16.563449937599223
16.563497216799714
16.563561511831903
16.563641153199598
16.563734273479316
16.56383894806918
16.563953317815713
16.564075676218366
16.5642045246789
16.564338591762148
16.564476824155626
16.56461835801089
16.564762473613246
16.564908539159973
16.56505594955154
16.565204060913466
16.565352124178606
16.565499220417188
16.565644201435084
16.565785642061194
16.5659218082665
16.566050654827286
16.56616985643412
16.566276883502034
16.56636912409581
16.566444047170584
16.5664993939616
16.56653337342435
16.566544832625247
16.658433082170138
16.658441610865403
16.658466974631956
16.658508527235806
16.658565256632322
16.65863587033727
16.658718896829917
16.65881278521166
16.658915996015306
16.659027069080352
16.659144670926676
16.659267616033194
16.659394866538737
16.659525516150843
16.65965875942831
16.65979385092833
16.659930059514497
16.66006661877809
16.660202677150856
16.660337250651978
16.660469181669548
16.660597109241397
16.66071945341515
16.66083442400169
16.66094005430474
16.661034266726684
16.661114968830166
16.661180174627642
16.66122814113032
16.661257503601597
16.661267390938157
16.75032467854699
16.75033221926804
16.750354669937064
16.75039153012364
16.75044200997267
16.75050508878069
16.750579586099086
16.750664232888806
16.75075773889382
16.750858844845382
16.75096636171686
16.751079191097336
16.751196329438542
16.75131686014102
16.75143993346933
16.75156473771987
16.751690466222705
16.75181628103113
16.751941276707832
16.752064446987504
16.75218465729046
16.752300627554966
16.7524109267299
16.752513986787452
16.752608134925183
16.752691648385394
16.752762829375214
16.752820095384205
16.752862077598262
16.752887715955016
16.752896338778044
16.836020980074128
16.83602770601048
16.836047748573137
16.836080711740784
16.83612596607807
16.83618268956532
16.836249918158813
16.836326597037953
16.836411630826934
16.836503923541585
16.83660241055885
16.836706076902892
16.836813963645895
16.836925165264077
16.83703881720799
16.837154076278015
16.837270097691878
16.83738600945055
16.83750088704046
16.83761373089003
16.83772344902873
16.83782884851655
16.83792863607829
16.83802143406536
16.83810580939624
16.838180318521463
16.83824356564445
16.838294270293396
16.838331338999794
16.838353933076313
16.83836152453514
16.915491917014652
16.91549796387038
16.915515995454637
16.91554569166216
16.915586540530402
16.915637867117056
16.91569886995034
16.915768658282353
16.91584628979475
16.915930801162766
16.91602123391884
16.916116650358667
16.916216140782296
16.9163188242161
16.916423841448676
16.91653034234134
16.91663747068205
16.91674434690172
16.916850051250535
16.91695360943016
16.91705398261061
16.91715006464713
16.917240686301547
16.91732463136762
16.917400661877963
16.91746755467186
16.91752414668283
16.917569385833314
16.917602383818377
16.91762246511251
16.91762920687093
16.98870954630479
16.988715022754675
16.988731362423657
16.988758301173085
16.988795414187422
16.98884213668638
16.988897790572725
16.988961611788355
16.98903277889272
16.989110436540596
16.98919371642211
16.98928175091476
16.989373680476987
16.98946865649764
16.98956583820548
16.98966438512972
16.989763447856696
16.98986215712952
16.989959613456122
16.99005487881104
16.99014697190181
16.99023486921014
16.990317511195066
16.990393817691928
16.990462709526
16.990523138195805
16.990574121257414
16.99061478098242
16.990644383681843
16.99066237563241
16.990668411989894
17.055648009773343
17.05565300471617
17.05566791423179
17.05569251595565
17.055726450485928
17.055769236449507
17.05582029027266
17.05587894649874
17.055944479706838
17.0560161226837
17.056093083487298
17.05617455713694
17.05625973282571
17.056347798094265
17.056437938464644
17.0565293336775
17.056621152846564
17.05671254834523
17.056802650202908
17.056890562234724
17.05697536099384
17.057056099284207
17.057131813356783
17.057201537201454
17.057264320969587
17.057319255142485
17.057365498382325
17.057402307194018
17.057429065589737
17.057445311798524
17.057450759538504
17.116283519125137
17.116288106801598
17.116301805331545
17.116324423868754
17.11635565261707
17.116395073953367
17.11644217733356
17.116496374581338
17.11655701694241
17.116623409306897
17.116694824267256
17.116770512179766
17.116849708055483
17.11693163653917
17.117015513442126
17.11710054471627
17.11718592483422
17.117270834205463
17.117354437077076
17.1174358808409
17.117514297531677
17.11758880889136
17.117658533963738
17.117722602179683
17.11778016906986
17.117830436080872
17.11787267271768
17.117906239576296
17.117930611029973
17.117945395382726
17.11795035076571
17.17059472105033
17.170598964711353
17.170611639406253
17.170632578276027
17.17066150945263
17.170698064405727
17.170741789385353
17.170792157103993
17.17084858023483
17.170910422706367
17.170977011454948
17.17104764517275
17.171121600839683
17.171198139173026
17.171276507469923
17.171355940541297
17.171435661422972
17.17151488135402
17.17159280020142
17.171668608010883
17.17174148823158
17.171810623714897
17.17187520436432
17.17193443905975
17.171987569133996
17.172033884789176
17.17207274292484
17.17210358527517
17.17212595602668
17.172139517270907
17.172144061083156
17.21856202918121
17.218565983766545
17.218577797506796
17.218597321903832
17.218624314242994
17.218658443975073
17.218699301681248
17.21874640816358
17.218799225342792
17.218857165391633
17.218919600733138
17.218985871750668
17.219055292974495
17.219127158788787
17.219200747165775
17.21927532198549
17.219350135406703
17.219424429677275
17.21949743934826
17.219568394382414
17.219636524525853
17.21970106583546
17.21976126819804
17.219816406210825
17.21986579084926
17.21990878325003
17.21994480928716
17.219973374090618
17.219994075968685
17.22000661847145
17.220010819738775
17.26016854234677
17.260172256467175
17.260183353612224
17.260201699359
17.26022707342544
17.26025917465761
17.260297628219362
17.260341992820422
17.260391769716264
17.260446410253312
17.260505324543598
17.260567888367365
17.2606334490519
17.260701331303146
17.26077084153675
17.260841271164505
17.26091190012914
17.260982000004265
17.26105083745639
17.261117678416
17.26118179319191
17.261242463267966
17.261298988604484
17.26135069762057
17.261396957424314
17.26143718557347
17.26147086221076
17.26149754191107
17.261516864907154
17.261528566703063
17.26153248546124
17.29539920925888
17.2954027266999
17.2954132374622
17.29543061785993
17.295454664779736
17.295485099679823
17.295521574510722
17.295563677610758
17.295610941328075
17.29566284840844
17.2957188396813
17.295778320345043
17.295840665584915
17.29590522644967
17.295971334574652
17.29603830613147
17.296105446164923
17.296172052585305
17.29623742048532
17.296300847020845
17.296361636992565
17.296419109752875
17.296472606263883
17.29652149833496
17.296565197730615
17.29660316639659
17.29663492677783
17.296660071704572
17.296678273657136
17.296689292611994
17.29669298202269
17.324241529750964
17.324244890632354
17.324254934458796
17.324271545612596
17.324294533917534
17.324323637944403
17.32435853003409
17.32439882125015
17.324444068013587
17.324493777659065
17.324547415395863
17.324604410130668
17.324664159874835
17.324726037621822
17.324789396321343
17.32485357327512
17.324917895014774
17.324981681898745
17.325044253001966
17.325104931459713
17.325163050332065
17.325217959531443
17.325269032649217
17.325315675598407
17.325357334866837
17.325393506600697
17.32542374559052
17.325447673736793
17.325464987905516
17.325475466512586
17.325478974505625
17.346685219657545
17.34668846135531
17.34669814962363
17.346714174712623
17.346736355876434
17.34676444420353
17.346798127020598
17.346837032194955
17.346880734081203
17.346928758497086
17.346980589168847
17.347035673220553
17.347093426419388
17.34715323903437
17.34721448096563
17.34727650643123
17.34733865919898
17.347400277580384
17.347460699692423
17.347519269093567
17.347575340812135
17.347628288250935
17.347677509817707
17.347722437115817
17.3477625425715
17.34779734769512
17.347826431120943
17.3478494360728
17.347866077234116
17.34787614645463
17.34787951703984
17.362722138588598
17.362725296490254
17.36273473472347
17.36275034752633
17.36277196057322
17.362799333497414
17.362832163891536
17.362870091187112
17.36291270214922
17.36295953547142
17.363010087877356
17.36306381938522
17.363120158439134
17.36317850774449
17.3632382494883
17.363298750205598
17.36335936623013
17.36341944893477
17.363478350222007
17.363535428334394
17.363590053971926
17.36364161716159
17.363689533740036
17.363733253227934
17.36377226603047
17.36380611114519
17.363834383571188
17.363856741113143
17.363872910602364
17.363882693027794
17.363885967372692
17.372346610939875
17.37234971908403
17.372359008829974
17.3723743767313
17.372395652194495
17.372422599828703
17.372454923219045
17.37249226856782
17.372534229933432
17.372580353609088
17.372630144028022
17.372683068897977
17.37273856426492
17.372796040330936
17.372854886721402
17.37291447744845
17.372974176479843
17.37303334311314
17.37309133758902
17.37314752699349
17.373201291417903
17.373252030800497
17.373299171317754
17.37334217307161
17.373380537041946
17.373413812475494
17.373441603933998
17.373463577721363
17.373479467736136
17.373489080276375
17.37349229762049
17.37555514215065
17.375558233794397
17.375567474296574
17.375582760970104
17.375603924446086
17.37563073096788
17.375662886090975
17.37570003824746
17.375741783901887
17.37578767186025
17.375837209111072
17.375889865917443
17.375945080858397
17.376002266640317
17.37606081537854
17.376120103591372
17.37617949780629
17.376238359976302
17.376296053132005
17.376351947312138
17.376405425736248
17.376455891635587
17.376502774613797
17.376545538272126
17.376583687080508
17.37661677366239
17.3766444057254
17.376666252365975
17.376682049802433
17.37669160607426
17.37669480454019
