# vtk DataFile Version 2.0
Unstructured Grid Example
ASCII
DATASET UNSTRUCTURED_GRID

POINTS 961 float
0.400000004 0.01999999956 0
0.3866666556 0.01999999956 0
0.3733333348 0.01999999956 0
0.3600000144 0.01999999956 0
0.346666664 0.01999999956 0
0.3333333432 0.01999999956 0
0.3199999928 0.01999999956 0
0.3066666724 0.01999999956 0
0.293333322 0.01999999956 0
0.2800000012 0.01999999956 0
0.2666666804 0.01999999956 0
0.25333333 0.01999999956 0
0.2399999948 0.01999999956 0
0.226666674 0.01999999956 0
0.2133333384 0.01999999956 0
0.2000000028 0.01999999956 0
0.1866666676 0.01999999956 0
0.173333332 0.01999999956 0
0.1599999964 0.01999999956 0
0.1466666608 0.01999999956 0
0.1333333404 0.01999999956 0
0.1199999972 0.01999999956 0
0.1066666692 0.01999999956 0
0.0933333336 0.01999999956 0
0.0799999984 0.01999999956 0
0.06666667 0.01999999956 0
0.0533333348 0.01999999956 0
0.03999999912 0.01999999956 0
0.02666666732 0.01999999956 0
0.01333333364 0.01999999956 0
0.0 0.01999999956 0
0.400000004 0.00666666684 0
0.3866666556 0.00666666684 0
0.3733333348 0.00666666684 0
0.3600000144 0.00666666684 0
0.346666664 0.00666666684 0
0.3333333432 0.00666666684 0
0.3199999928 0.00666666684 0
0.3066666724 0.00666666684 0
0.293333322 0.00666666684 0
0.2800000012 0.00666666684 0
0.2666666804 0.00666666684 0
0.25333333 0.00666666684 0
0.2399999948 0.00666666684 0
0.226666674 0.00666666684 0
0.2133333384 0.00666666684 0
0.2000000028 0.00666666684 0
0.1866666676 0.00666666684 0
0.173333332 0.00666666684 0
0.1599999964 0.00666666684 0
0.1466666608 0.00666666684 0
0.1333333404 0.00666666684 0
0.1199999972 0.00666666684 0
0.1066666692 0.00666666684 0
0.0933333336 0.00666666684 0
0.0799999984 0.00666666684 0
0.06666667 0.00666666684 0
0.0533333348 0.00666666684 0
0.03999999912 0.00666666684 0
0.02666666732 0.00666666684 0
0.01333333364 0.00666666684 0
0.0 0.00666666684 0
0.400000004 -0.00666666684 0
0.3866666556 -0.00666666684 0
0.3733333348 -0.00666666684 0
0.3600000144 -0.00666666684 0
0.346666664 -0.00666666684 0
0.3333333432 -0.00666666684 0
0.3199999928 -0.00666666684 0
0.3066666724 -0.00666666684 0
0.293333322 -0.00666666684 0
0.2800000012 -0.00666666684 0
0.2666666804 -0.00666666684 0
0.25333333 -0.00666666684 0
0.2399999948 -0.00666666684 0
0.226666674 -0.00666666684 0
0.2133333384 -0.00666666684 0
0.2000000028 -0.00666666684 0
0.1866666676 -0.00666666684 0
0.173333332 -0.00666666684 0
0.1599999964 -0.00666666684 0
0.1466666608 -0.00666666684 0
0.1333333404 -0.00666666684 0
0.1199999972 -0.00666666684 0
0.1066666692 -0.00666666684 0
0.0933333336 -0.00666666684 0
0.0799999984 -0.00666666684 0
0.06666667 -0.00666666684 0
0.0533333348 -0.00666666684 0
0.03999999912 -0.00666666684 0
0.02666666732 -0.00666666684 0
0.01333333364 -0.00666666684 0
0.0 -0.00666666684 0
0.400000004 -0.01999999956 0
0.3866666556 -0.01999999956 0
0.3733333348 -0.01999999956 0
0.3600000144 -0.01999999956 0
0.346666664 -0.01999999956 0
0.3333333432 -0.01999999956 0
0.3199999928 -0.01999999956 0
0.3066666724 -0.01999999956 0
0.293333322 -0.01999999956 0
0.2800000012 -0.01999999956 0
0.2666666804 -0.01999999956 0
0.25333333 -0.01999999956 0
0.2399999948 -0.01999999956 0
0.226666674 -0.01999999956 0
0.2133333384 -0.01999999956 0
0.2000000028 -0.01999999956 0
0.1866666676 -0.01999999956 0
0.173333332 -0.01999999956 0
0.1599999964 -0.01999999956 0
0.1466666608 -0.01999999956 0
0.1333333404 -0.01999999956 0
0.1199999972 -0.01999999956 0
0.1066666692 -0.01999999956 0
0.0933333336 -0.01999999956 0
0.0799999984 -0.01999999956 0
0.06666667 -0.01999999956 0
0.0533333348 -0.01999999956 0
0.03999999912 -0.01999999956 0
0.02666666732 -0.01999999956 0
0.01333333364 -0.01999999956 0
0.0 -0.01999999956 0
0.400000004 -0.03333333508 0
0.3866666556 -0.03333333508 0
0.3733333348 -0.03333333508 0
0.3600000144 -0.03333333508 0
0.346666664 -0.03333333508 0
0.3333333432 -0.03333333508 0
0.3199999928 -0.03333333508 0
0.3066666724 -0.03333333508 0
0.293333322 -0.03333333508 0
0.2800000012 -0.03333333508 0
0.2666666804 -0.03333333508 0
0.25333333 -0.03333333508 0
0.2399999948 -0.03333333508 0
0.226666674 -0.03333333508 0
0.2133333384 -0.03333333508 0
0.2000000028 -0.03333333508 0
0.1866666676 -0.03333333508 0
0.173333332 -0.03333333508 0
0.1599999964 -0.03333333508 0
0.1466666608 -0.03333333508 0
0.1333333404 -0.03333333508 0
0.1199999972 -0.03333333508 0
0.1066666692 -0.03333333508 0
0.0933333336 -0.03333333508 0
0.0799999984 -0.03333333508 0
0.06666667 -0.03333333508 0
0.0533333348 -0.03333333508 0
0.03999999912 -0.03333333508 0
0.02666666732 -0.03333333508 0
0.01333333364 -0.03333333508 0
0.0 -0.03333333508 0
0.400000004 -0.0466666668 0
0.3866666556 -0.0466666668 0
0.3733333348 -0.0466666668 0
0.3600000144 -0.0466666668 0
0.346666664 -0.0466666668 0
0.3333333432 -0.0466666668 0
0.3199999928 -0.0466666668 0
0.3066666724 -0.0466666668 0
0.293333322 -0.0466666668 0
0.2800000012 -0.0466666668 0
0.2666666804 -0.0466666668 0
0.25333333 -0.0466666668 0
0.2399999948 -0.0466666668 0
0.226666674 -0.0466666668 0
0.2133333384 -0.0466666668 0
0.2000000028 -0.0466666668 0
0.1866666676 -0.0466666668 0
0.173333332 -0.0466666668 0
0.1599999964 -0.0466666668 0
0.1466666608 -0.0466666668 0
0.1333333404 -0.0466666668 0
0.1199999972 -0.0466666668 0
0.1066666692 -0.0466666668 0
0.0933333336 -0.0466666668 0
0.0799999984 -0.0466666668 0
0.06666667 -0.0466666668 0
0.0533333348 -0.0466666668 0
0.03999999912 -0.0466666668 0
0.02666666732 -0.0466666668 0
0.01333333364 -0.0466666668 0
0.0 -0.0466666668 0
0.400000004 -0.0599999988 0
0.3866666556 -0.0599999988 0
0.3733333348 -0.0599999988 0
0.3600000144 -0.0599999988 0
0.346666664 -0.0599999988 0
0.3333333432 -0.0599999988 0
0.3199999928 -0.0599999988 0
0.3066666724 -0.0599999988 0
0.293333322 -0.0599999988 0
0.2800000012 -0.0599999988 0
0.2666666804 -0.0599999988 0
0.25333333 -0.0599999988 0
0.2399999948 -0.0599999988 0
0.226666674 -0.0599999988 0
0.2133333384 -0.0599999988 0
0.2000000028 -0.0599999988 0
0.1866666676 -0.0599999988 0
0.173333332 -0.0599999988 0
0.1599999964 -0.0599999988 0
0.1466666608 -0.0599999988 0
0.1333333404 -0.0599999988 0
0.1199999972 -0.0599999988 0
0.1066666692 -0.0599999988 0
0.0933333336 -0.0599999988 0
0.0799999984 -0.0599999988 0
0.06666667 -0.0599999988 0
0.0533333348 -0.0599999988 0
0.03999999912 -0.0599999988 0
0.02666666732 -0.0599999988 0
0.01333333364 -0.0599999988 0
0.0 -0.0599999988 0
0.400000004 -0.0733333304 0
0.3866666556 -0.0733333304 0
0.3733333348 -0.0733333304 0
0.3600000144 -0.0733333304 0
0.346666664 -0.0733333304 0
0.3333333432 -0.0733333304 0
0.3199999928 -0.0733333304 0
0.3066666724 -0.0733333304 0
0.293333322 -0.0733333304 0
0.2800000012 -0.0733333304 0
0.2666666804 -0.0733333304 0
0.25333333 -0.0733333304 0
0.2399999948 -0.0733333304 0
0.226666674 -0.0733333304 0
0.2133333384 -0.0733333304 0
0.2000000028 -0.0733333304 0
0.1866666676 -0.0733333304 0
0.173333332 -0.0733333304 0
0.1599999964 -0.0733333304 0
0.1466666608 -0.0733333304 0
0.1333333404 -0.0733333304 0
0.1199999972 -0.0733333304 0
0.1066666692 -0.0733333304 0
0.0933333336 -0.0733333304 0
0.0799999984 -0.0733333304 0
0.06666667 -0.0733333304 0
0.0533333348 -0.0733333304 0
0.03999999912 -0.0733333304 0
0.02666666732 -0.0733333304 0
0.01333333364 -0.0733333304 0
0.0 -0.0733333304 0
0.400000004 -0.086666666 0
0.3866666556 -0.086666666 0
0.3733333348 -0.086666666 0
0.3600000144 -0.086666666 0
0.346666664 -0.086666666 0
0.3333333432 -0.086666666 0
0.3199999928 -0.086666666 0
0.3066666724 -0.086666666 0
0.293333322 -0.086666666 0
0.2800000012 -0.086666666 0
0.2666666804 -0.086666666 0
0.25333333 -0.086666666 0
0.2399999948 -0.086666666 0
0.226666674 -0.086666666 0
0.2133333384 -0.086666666 0
0.2000000028 -0.086666666 0
0.1866666676 -0.086666666 0
0.173333332 -0.086666666 0
0.1599999964 -0.086666666 0
0.1466666608 -0.086666666 0
0.1333333404 -0.086666666 0
0.1199999972 -0.086666666 0
0.1066666692 -0.086666666 0
0.0933333336 -0.086666666 0
0.0799999984 -0.086666666 0
0.06666667 -0.086666666 0
0.0533333348 -0.086666666 0
0.03999999912 -0.086666666 0
0.02666666732 -0.086666666 0
0.01333333364 -0.086666666 0
0.0 -0.086666666 0
0.400000004 -0.1000000016 0
0.3866666556 -0.1000000016 0
0.3733333348 -0.1000000016 0
0.3600000144 -0.1000000016 0
0.346666664 -0.1000000016 0
0.3333333432 -0.1000000016 0
0.3199999928 -0.1000000016 0
0.3066666724 -0.1000000016 0
0.293333322 -0.1000000016 0
0.2800000012 -0.1000000016 0
0.2666666804 -0.1000000016 0
0.25333333 -0.1000000016 0
0.2399999948 -0.1000000016 0
0.226666674 -0.1000000016 0
0.2133333384 -0.1000000016 0
0.2000000028 -0.1000000016 0
0.1866666676 -0.1000000016 0
0.173333332 -0.1000000016 0
0.1599999964 -0.1000000016 0
0.1466666608 -0.1000000016 0
0.1333333404 -0.1000000016 0
0.1199999972 -0.1000000016 0
0.1066666692 -0.1000000016 0
0.0933333336 -0.1000000016 0
0.0799999984 -0.1000000016 0
0.06666667 -0.1000000016 0
0.0533333348 -0.1000000016 0
0.03999999912 -0.1000000016 0
0.02666666732 -0.1000000016 0
0.01333333364 -0.1000000016 0
0.0 -0.1000000016 0
0.400000004 -0.1133333372 0
0.3866666556 -0.1133333372 0
0.3733333348 -0.1133333372 0
0.3600000144 -0.1133333372 0
0.346666664 -0.1133333372 0
0.3333333432 -0.1133333372 0
0.3199999928 -0.1133333372 0
0.3066666724 -0.1133333372 0
0.293333322 -0.1133333372 0
0.2800000012 -0.1133333372 0
0.2666666804 -0.1133333372 0
0.25333333 -0.1133333372 0
0.2399999948 -0.1133333372 0
0.226666674 -0.1133333372 0
0.2133333384 -0.1133333372 0
0.2000000028 -0.1133333372 0
0.1866666676 -0.1133333372 0
0.173333332 -0.1133333372 0
0.1599999964 -0.1133333372 0
0.1466666608 -0.1133333372 0
0.1333333404 -0.1133333372 0
0.1199999972 -0.1133333372 0
0.1066666692 -0.1133333372 0
0.0933333336 -0.1133333372 0
0.0799999984 -0.1133333372 0
0.06666667 -0.1133333372 0
0.0533333348 -0.1133333372 0
0.03999999912 -0.1133333372 0
0.02666666732 -0.1133333372 0
0.01333333364 -0.1133333372 0
0.0 -0.1133333372 0
0.400000004 -0.1266666652 0
0.3866666556 -0.1266666652 0
0.3733333348 -0.1266666652 0
[...]
POINT_DATA 961
SCALARS Temp float 1
LOOKUP_TABLE default
0.7180924014011121
0.7467732341975012
0.767355631230391
0.7823210648302239
0.7932863756751908
0.8013602673508877
0.8073320675342376
0.8117699037946751
0.8150872821880107
0.8175871832631826
0.8194942408531776
0.8209770549358705
0.8221644711689632
0.8231582506782101
0.8240425234825204
0.824891287737427
0.8257752769255673
0.8267682725829371
0.8279537361685196
0.8294323960503593
0.8313314873323372
0.8338169165449489
0.8371087679972893
0.8415033356626729
0.8474027014270455
0.8553567118937492
0.8661227830621905
0.8807533933267786
0.9007293527945249
0.928199746082382
0.9665735627728672
0.7579329355984341
0.7860565166039919
0.8064178434591578
0.8213013583723207
0.832229015408323
0.8402874495090055
0.8462545922004563
0.8506931472294642
0.8540137865107159
0.8565180159041541
0.8584297121026299
0.8599171189102782
0.8611089559652669
0.8621069816864678
0.8629953919187895
0.8638482909839391
0.8647365332427513
0.8657340204709832
0.8669243155921944
0.8684082030378616
0.8703128863872627
0.8728040723205688
0.8761013548949286
0.8805000014335538
0.8864001059970609
0.8943477283809288
0.9050930080941182
0.9196733825047562
0.939538345787441
0.9667286618802009
1.004200215866208
2.6232296440810776
2.627407838875313
2.6390525833279677
2.6497925275279814
2.6586735813332387
2.665739584354274
2.6712720514109822
2.6755748895774287
2.678917666898301
2.6815241156727954
2.683575244541884
2.685216589389483
2.686566071714304
2.6877213484810536
2.688766353073496
2.6897771438845925
2.690827343658757
2.691993474041886
2.6933604735831134
2.6950277420920443
2.6971160488648858
2.6997755335188187
2.7031949374448527
2.707611703042248
2.713321363901529
2.7206814114355216
2.7300957940334762
2.741938812807094
2.756268135989736
2.7718009346241184
2.777377375242102
4.465280041059435
4.467560139133598
4.473156366880527
4.480149039365975
4.486779108556894
4.492527179053958
4.497308853800267
4.5012045820225115
4.504347415975208
4.506877580030882
4.508925149691951
4.51060487605053
4.512016405306932
4.513246819622158
4.514374079993369
4.51547080180192
4.516608163915298
4.51785989380135
4.519306360652277
4.5210387874047555
4.523163491946472
4.525805862023985
4.529113193499989
4.533254620170082
4.538413911157106
4.544766026928165
4.552416356694373
4.561250555825586
4.570573245077772
4.578036358862585
4.581077073826987
6.301890017311612
6.303103437146532
6.306382799136622
6.31082293837914
6.315551302843616
6.319994066374241
6.323915047381557
6.327258476998153
6.330056494890407
6.332379025197652
6.334308492221828
6.335927793126616
6.337315387454741
6.33854416753927
6.339682285134655
6.3407950031823965
6.34194707616788
6.343205352588376
6.344641401513885
6.346333931356942
6.348370625442319
6.350848727612145
6.3538730531903145
6.357549110165011
6.361966768973253
6.3671662179779736
6.373070946721058
6.3793639549425585
6.385278119986502
6.389647984124475
6.391265209649719
8.135217204921446
8.13595623972633
8.13800112784062
8.140928826863764
8.144249718266495
8.147573228853222
8.150660856261778
8.153404982942646
8.155780736071634
8.15780965477215
8.15953667516753
8.161016758274657
8.162307793142807
8.16346736682869
8.164551811230625
8.165616574868894
8.166717321502027
8.167911323679931
8.169258818844078
8.170823957892388
8.17267483259673
8.174881800436092
8.17751277702829
8.18062349266755
8.184239404519301
8.188324725197834
8.192733831982839
8.19714682842171
8.20104129246635
8.203762984319633
8.204746867738557
9.966334472663611
9.966805125871586
9.96813200710168
9.97009347257281
9.972412452524855
9.974835884054041
9.977180237692236
9.979337934788308
9.981262515004119
9.982948676824028
9.984416056665587
9.985697996438407
9.986834571184795
9.987868709227808
9.988844354414894
9.98980591778379
9.990798471146501
9.99186823908797
9.993063019367805
9.99443212707581
9.996025345696951
9.997890182337784
10.000066382948889
10.002576414837192
10.00541028125198
10.008503668614688
10.011711234203148
10.014786653532598
10.017391189365247
10.01915436660566
10.019779982315491
11.795714775479233
11.79601788512984
11.796881878523614
11.798185791546135
11.799769852475364
11.801476174571679
11.80317737293474
11.80478773371661
11.80626085528158
11.807580897241401
11.808753006377398
11.809795441685372
11.810734012224763
11.811598570957843
11.812421036380286
11.81323445601513
11.814072696459782
11.81497038476493
11.815962770167548
11.81708514795074
11.818371416410889
11.819851242667678
11.82154516398725
11.823457012424576
11.825563260359502
11.827800090842931
11.830051661725012
11.832146838551216
11.833874092798151
11.835019626536484
11.835421673904163
13.623593019731917
13.623780055253821
13.624317092171626
13.62513875160722
13.626155699022206
13.627275091112717
13.62841694188063
13.629522713283755
13.630556681375795
13.63150271467289
13.63235940072664
13.633135327387434
13.633845364632673
13.634508094044614
13.63514419904944
13.635775558999569
13.636424783919452
13.637114925348998
13.637869120316338
13.638709907162333
13.639657916631364
13.640729611498239
13.641933717025436
13.643266163386734
13.64470369339825
13.646197256884669
13.647667673298631
13.649007373426588
13.650091855797982
13.65080148155291
13.651048756732738
15.450083670414184
15.450181425658352
15.450463668082119
15.450900133408288
15.451448570999101
15.452063654633372
15.45270464855801
15.453340053548818
15.453949083211295
15.454520806421755
15.455052173833057
15.455545821699566
15.45600818123809
15.456448073238146
15.456875755337661
15.45730232214635
15.457739334395063
15.458198538169242
15.458691543901349
15.45922932526927
15.459821386135166
15.46047444407795
15.461190488722186
15.461964215833627
15.462780050122133
15.463609459212865
15.464409791712265
15.465126203795418
15.465697855734737
15.466068117315793
15.466196456831895
17.275241595711485
17.27526218087341
17.275322673373495
17.275419516449514
17.27554748098162
17.275700488521203
17.275872423994873
17.276057764970496
17.27625196590917
17.276451598548896
17.27665432291683
17.27685875092022
17.277064265871896
17.277270838492328
17.277478852592914
17.277688946165583
17.277901866788838
17.278118329575364
17.27833886826317
17.278563668705708
17.278792376064416
17.27902387475736
17.27925604441022
17.279485525822803
17.27970753980712
17.27991584465151
17.280102927041927
17.280260508933196
17.280380390066384
17.280455528732748
17.280481140854036
17.37707439834325
17.377091386492175
17.377141495075506
17.377222291896466
17.37733013625813
17.37746068207449
17.37760940244679
17.377772029483076
17.377944862256836
17.378124922513894
17.378309991934564
17.37849855871387
17.378689713519062
17.37888302521378
17.37907840859053
17.37927599284864
17.379475994615326
17.37967858958639
17.37988377919924
17.380091247749256
17.380300207632185
17.38050923755094
17.380716121109007
17.380917716940907
17.381109890504995
17.381287562309407
17.381444920310127
17.381575826860065
17.38167440878374
17.381735754725028
17.381756587506977
17.478801755186815
17.478816051774835
17.478858343299944
17.478926917233853
17.479019172642776
17.479131936963473
17.47926181073464
17.47940547393297
17.47955992171375
17.47972260531649
17.479891493323187
17.480065062469716
17.480242242142236
17.4804223336449
17.480604913277926
17.48078972803971
17.48097658997531
17.481165266929008
17.481355369993004
17.481546237125485
17.481736814339865
17.48192554165139
17.482110251405693
17.48228810435726
17.482455581940744
17.48260856823465
17.48274254332451
17.48285289537569
17.482935332892573
17.48298634296387
17.483003615167828
17.580428767411313
17.580441000260222
17.580477268815763
17.580536334728915
17.580616294427433
17.58071478380439
17.580829208817647
17.58095695950313
17.58109558664078
17.581242918910668
17.58139712764488
17.58155673902104
17.581720607866032
17.581887867168174
17.582057859019763
17.58223005464452
17.582403970131242
17.58257907765757
17.58275471473609
17.582929993275425
17.58310371164518
17.583274277270053
17.58343964593261
17.583597297340557
17.583744256742985
17.583877182710452
17.58399252922012
17.58408678002659
17.58415673793483
17.584199831448736
17.584214389269277
17.68195926454658
17.681969881938805
17.6820014169435
17.6820529514358
17.682123059521473
17.682209942840103
17.682311587452794
17.68242591428664
17.68255091035067
17.68268472209328
17.682825714774413
17.68297249339276
17.68312389342507
17.683278950702892
17.683436853478025
17.68359688285748
17.683758347964808
17.683920516528037
17.68408254446772
17.684243407346738
17.684401837428744
17.684556273221883
17.68470482584952
17.684845277005103
17.684975112522284
17.685091603662546
17.68519193758769
17.685273391887264
17.6853335391226
17.68537045564323
17.685382903611387
17.78339614302277
17.783405473783272
17.78343322625349
17.783478703155495
17.783540811855946
17.78361815562161
17.78370914208253
17.783812089821232
17.78392532563867
17.784047257290695
17.78417642447336
17.784311521923318
17.78445139950922
17.784595045549334
17.78474155450054
17.784890083824042
17.785039805737735
17.785189854802997
17.785339275185432
17.785486970723383
17.785631661422475
17.785771852233058
17.785905816780108
17.786031607180995
17.786147090432028
17.786250018821384
17.786338132807607
17.786409290776536
17.78646161505272
17.786493636473665
17.78650441769623
17.881490901239626
17.881499189448505
17.88152386838826
17.881564396033628
17.881619916288585
17.881689321643925
17.88177132930572
17.88186455736645
17.881967597069654
17.88207906883216
17.882197664584126
17.882322169924084
17.882451469085325
17.88258453700975
17.882720418413424
17.88285819751036
17.88299696334451
17.88313577156849
17.88327360632886
17.88340934521775
17.883541730453608
17.883669351084905
17.88379063755992
17.883903877184345
17.884007248897525
17.884098882190763
17.88417693743413
17.884239702584598
17.88428569849977
17.884313780609386
17.884323224067597
17.972971452336957
17.972978882195747
17.973001024655318
17.973037448775532
17.973087469093432
17.973150189341744
17.97322455665786
17.973309416513047
17.97340356668352
17.97350580020135
17.973614939938173
17.973729858551117
17.973849485769392
17.973972806118905
17.974098846184322
17.974226654186513
17.97435527608689
17.97448372878949
17.974610973705893
17.97473589325559
17.97485727290266
17.97497379256277
17.975084027750963
17.975186467144045
17.975279543894217
17.975361684046504
17.975431369055265
17.97548720822439
17.975528015492312
17.975552881993128
17.97556123589814
18.05780574405968
18.05781245972047
18.057832487505436
18.05786547716578
18.057910868063097
18.057967920134303
18.058035753047655
18.058113386202713
18.058199779355473
18.058293865566
18.058394579283465
18.05850087376957
18.0586117293017
18.058726154514225
18.05884317951832
18.058961842905223
18.0590811761882
18.0592001859433
18.05931783644529
18.059433034920296
18.059544621460738
18.05965136663459
18.05975197648284
18.05984511027888
18.059929407874517
18.06000352917106
18.060066202844727
18.060116280996432
18.06015279577738
18.06017501192016
18.06018246948787
18.135964020815614
18.135970137545527
18.135988389034154
18.136018484451746
18.13605995565115
18.136112179421094
18.13617440618717
18.13624578945488
18.13632541670546
18.136412334790972
18.136505572781385
18.136604156998793
18.136707119401375
18.136813501217958
18.136922350224065
18.137032713264325
18.137143627019125
18.13725410698267
18.137363136987727
18.137469660960594
18.137572578461985
18.137670746401227
18.137762986168177
18.137848100638102
18.137924897698603
18.137992222387798
18.13804899506226
18.1380942529959
18.138127192647318
18.138147208235242
18.13815392276348
18.20741877603293
18.207424387959566
18.207441140275435
18.207468786444238
18.207506927650986
18.20755502903272
18.207612441046436
18.20767842140672
18.207752158885153
18.207832793052532
18.207919433004548
18.208011170317196
18.208107087254177
18.20820626183538
18.20830776804083
18.20841067238437
18.20851402939668
18.208616875734556
18.208718224838428
18.20881706343522
18.20891235103437
18.209003024301136
18.209088005265976
18.209166217166977
18.20923660458568
18.20929815971324
18.209349952489784
18.2093911626108
18.209421111492542
18.20943929101604
18.209445386400205
18.2721447320516
18.27214991762886
18.272165402348044
18.27219097304412
18.27222628340202
18.272270865982378
18.272324148404277
18.272385469921595
18.27245410004166
18.272529254061492
18.27261010860014
18.272695812829824
18.272785496355496
18.27287827516114
18.272973253859032
18.273069525202786
18.27316616903362
18.27326225017671
18.273356816859113
18.273448900623684
18.273537518561447
18.27362167935994
18.27370039195396
18.273772680097313
18.273837599619938
18.273894260061997
18.273941848731234
18.273979655642943
18.27400709804469
18.274023742168282
18.274029320369095
18.330119224919503
18.330124050846113
18.330138465295867
18.330162280462314
18.330195190108665
18.33023677863395
18.330286533565506
18.330343858292004
18.33040808689664
18.330478496577243
18.330554320731398
18.330634758798297
18.330718983768705
18.330806148650485
18.330895390132067
18.330985830203772
18.331076577610354
18.331166728499795
18.3312553675531
18.331341570310517
18.3314244072639
18.33150295091959
18.331576284522342
18.331643515403826
18.331703789865102
18.33175631119415
18.331800359128607
18.33183530957883
18.331860653749942
18.33187601488184
18.33188116131741
18.381321485700482
18.381326009781766
18.38133952531762
18.38136186388143
18.381392749993136
18.381431808091406
18.381478572387493
18.38153249683747
18.381592967209112
18.381659311203034
18.38173080967735
18.381806705392993
18.381886210167238
18.381968511628827
18.382052777847647
18.382138160449678
18.382223797857367
18.382308817909507
18.382392340916663
18.38247348366577
18.382551364751617
18.382625112219163
18.382693872160676
18.38275682096407
18.38281317827588
18.382862222218755
18.38290330539242
18.38293587074202
18.382959466742506
18.38297376052598
18.38297854803879
18.425733614677224
18.425737887943736
18.425750656094458
18.425771765535796
18.425800964416478
18.42583790811389
18.425882167198257
18.425933235421958
18.425990539768726
18.426053448886588
18.426121282910227
18.426193321354397
18.426268809949587
18.426346967543015
18.42642699137814
18.42650806125397
18.426589344021696
18.42666999759468
18.42674917534955
18.426826031278452
18.426899726126397
18.426969435334165
18.427034357414133
18.427093725252146
18.42714681754567
18.427192971872135
18.427231598092916
18.427262191377032
18.427284344512934
18.427297758425304
18.427302250242217
18.46333968357653
18.46334375189173
18.46335590903585
18.463376012713567
18.46340382913053
18.46343903742757
18.463481236294886
18.46352995054321
18.46358463968922
18.46364470515911
18.463709499064745
18.463778331446424
18.46385047683921
18.463925181232987
18.464001667781048
18.464079141678106
18.464156795524932
18.464233814302368
18.46430938069648
18.464382681019902
18.46445291185897
18.464519288145432
18.464581051281918
18.46463747965919
18.464687898904558
18.46473169332048
18.46476831735563
18.464797306541232
18.464818287714863
18.46483098765461
18.46483523964807
18.49412647810185
18.49413038340233
18.49414205438546
18.494161357234155
18.49418807174205
18.494221895009364
18.49426244710275
18.494309276623422
18.494361868244653
18.494419649032576
18.49448199645569
18.494548245141115
18.494617693223315
18.49468960931418
18.494763238488197
18.494837807645553
18.494912531463854
18.494986618026903
18.495059274770853
18.495129714909037
18.495197164390312
18.495260870001907
18.495320107255527
18.49537419027839
18.495422481156023
18.495464400157967
18.49549943579303
18.495527154234143
18.495547208042197
18.49555934345666
18.49556340590043
18.518083134612557
18.518086915894816
18.51809821691541
18.518116910016158
18.518142784883953
18.51817555174097
18.518214846346535
18.518260234874052
18.51831122071842
18.51836725020128
18.518427720035987
18.518491983733202
18.51855935778278
18.518629128610637
18.518700558736565
18.518772892454752
18.518845362170875
18.518917194462066
18.51898761642757
18.519055862432925
18.519121181250163
18.519182844143465
18.519240152552
18.519292447505
18.519339118301897
18.519379611865475
18.519413441791748
18.519440196711233
18.51945954796414
18.519471255956695
18.519475174928754
18.53520105807086
18.535204752200023
18.535215793180715
18.535234057536712
18.535259341684124
18.53529136479435
18.535329773367394
18.535374145659404
18.535423998010895
18.53547879014808
18.535537932285184
18.535600791293838
18.53566669676745
18.535734947958293
18.535804820037434
18.535875569971722
18.53594644310004
18.536016679461536
18.536085520395762
18.53615221547828
18.536216029760922
18.536276251825182
18.536332201311584
18.536383238001928
18.536428770047703
18.536468262736282
18.53650124687099
18.536527326428885
18.536546185545557
18.536557594258806
18.5365614127942
18.545474260586985
18.545477902982036
18.5454887895835
18.54550679934176
18.54553173258216
18.54556331368426
18.54560119541386
18.54564496309741
18.545694140679167
18.545748195793443
18.545806546659673
18.545868568115527
18.54593359761153
18.54600094213251
18.546069884510487
18.54613968940821
18.54620961002477
18.54627889456983
18.54634679299802
18.546412564045646
18.54647548251952
18.546534847323528
18.54658998889311
18.546640278080698
18.54668513412159
18.546724033062045
18.546756515755945
18.546782195121917
18.54680076273614
18.54681199422904
18.546815753298514
18.548899055482227
18.548902680724172
18.548913516136125
18.548931441463942
18.54895625831534
18.5489876927798
18.549025399682744
18.54906896667837
18.54911792021882
18.54917173055255
18.54922981855179
18.549291561701125
18.549356300069093
18.54942334322373
18.54949197656184
18.549561467326114
18.549631071351698
18.549700039586504
18.549767624868
18.54983308899122
18.54989571001217
18.549954790263964
18.55000966375956
18.550059705011826
18.550104336913442
18.55014303905454
18.550175355594646
18.55020090238961
18.550219373457367
18.550230546262334
18.550234285640556
