# vtk DataFile Version 2.0
Unstructured Grid Example
ASCII
DATASET UNSTRUCTURED_GRID

POINTS 961 float
0.400000004 0.01999999956 0
0.3866666556 0.01999999956 0
0.3733333348 0.01999999956 0
0.3600000144 0.01999999956 0
0.346666664 0.01999999956 0
0.3333333432 0.01999999956 0
0.3199999928 0.01999999956 0
0.3066666724 0.01999999956 0
0.293333322 0.01999999956 0
0.2800000012 0.01999999956 0
0.2666666804 0.01999999956 0
0.25333333 0.01999999956 0
0.2399999948 0.01999999956 0
0.226666674 0.01999999956 0
0.2133333384 0.01999999956 0
0.2000000028 0.01999999956 0
0.1866666676 0.01999999956 0
0.173333332 0.01999999956 0
0.1599999964 0.01999999956 0
0.1466666608 0.01999999956 0
0.1333333404 0.01999999956 0
0.1199999972 0.01999999956 0
0.1066666692 0.01999999956 0
0.0933333336 0.01999999956 0
0.0799999984 0.01999999956 0
0.06666667 0.01999999956 0
0.0533333348 0.01999999956 0
0.03999999912 0.01999999956 0
0.02666666732 0.01999999956 0
0.01333333364 0.01999999956 0
0.0 0.01999999956 0
0.400000004 0.00666666684 0
0.3866666556 0.00666666684 0
0.3733333348 0.00666666684 0
0.3600000144 0.00666666684 0
0.346666664 0.00666666684 0
0.3333333432 0.00666666684 0
0.3199999928 0.00666666684 0
0.3066666724 0.00666666684 0
0.293333322 0.00666666684 0
0.2800000012 0.00666666684 0
0.2666666804 0.00666666684 0
0.25333333 0.00666666684 0
0.2399999948 0.00666666684 0
0.226666674 0.00666666684 0
0.2133333384 0.00666666684 0
0.2000000028 0.00666666684 0
0.1866666676 0.00666666684 0
0.173333332 0.00666666684 0
0.1599999964 0.00666666684 0
0.1466666608 0.00666666684 0
0.1333333404 0.00666666684 0
0.1199999972 0.00666666684 0
0.1066666692 0.00666666684 0
0.0933333336 0.00666666684 0
0.0799999984 0.00666666684 0
0.06666667 0.00666666684 0
0.0533333348 0.00666666684 0
0.03999999912 0.00666666684 0
0.02666666732 0.00666666684 0
0.01333333364 0.00666666684 0
0.0 0.00666666684 0
0.400000004 -0.00666666684 0
0.3866666556 -0.00666666684 0
0.3733333348 -0.00666666684 0
0.3600000144 -0.00666666684 0
0.346666664 -0.00666666684 0
0.3333333432 -0.00666666684 0
0.3199999928 -0.00666666684 0
0.3066666724 -0.00666666684 0
0.293333322 -0.00666666684 0
0.2800000012 -0.00666666684 0
0.2666666804 -0.00666666684 0
0.25333333 -0.00666666684 0
0.2399999948 -0.00666666684 0
0.226666674 -0.00666666684 0
0.2133333384 -0.00666666684 0
0.2000000028 -0.00666666684 0
0.1866666676 -0.00666666684 0
0.173333332 -0.00666666684 0
0.1599999964 -0.00666666684 0
0.1466666608 -0.00666666684 0
0.1333333404 -0.00666666684 0
0.1199999972 -0.00666666684 0
0.1066666692 -0.00666666684 0
0.0933333336 -0.00666666684 0
0.0799999984 -0.00666666684 0
0.06666667 -0.00666666684 0
0.0533333348 -0.00666666684 0
0.03999999912 -0.00666666684 0
0.02666666732 -0.00666666684 0
0.01333333364 -0.00666666684 0
0.0 -0.00666666684 0
0.400000004 -0.01999999956 0
0.3866666556 -0.01999999956 0
0.3733333348 -0.01999999956 0
0.3600000144 -0.01999999956 0
0.346666664 -0.01999999956 0
0.3333333432 -0.01999999956 0
0.3199999928 -0.01999999956 0
0.3066666724 -0.01999999956 0
0.293333322 -0.01999999956 0
0.2800000012 -0.01999999956 0
0.2666666804 -0.01999999956 0
0.25333333 -0.01999999956 0
0.2399999948 -0.01999999956 0
0.226666674 -0.01999999956 0
0.2133333384 -0.01999999956 0
0.2000000028 -0.01999999956 0
0.1866666676 -0.01999999956 0
0.173333332 -0.01999999956 0
0.1599999964 -0.01999999956 0
0.1466666608 -0.01999999956 0
0.1333333404 -0.01999999956 0
0.1199999972 -0.01999999956 0
0.1066666692 -0.01999999956 0
0.0933333336 -0.01999999956 0
0.0799999984 -0.01999999956 0
0.06666667 -0.01999999956 0
0.0533333348 -0.01999999956 0
0.03999999912 -0.01999999956 0
0.02666666732 -0.01999999956 0
0.01333333364 -0.01999999956 0
0.0 -0.01999999956 0
0.400000004 -0.03333333508 0
0.3866666556 -0.03333333508 0
0.3733333348 -0.03333333508 0
0.3600000144 -0.03333333508 0
0.346666664 -0.03333333508 0
0.3333333432 -0.03333333508 0
0.3199999928 -0.03333333508 0
0.3066666724 -0.03333333508 0
0.293333322 -0.03333333508 0
0.2800000012 -0.03333333508 0
0.2666666804 -0.03333333508 0
0.25333333 -0.03333333508 0
0.2399999948 -0.03333333508 0
0.226666674 -0.03333333508 0
0.2133333384 -0.03333333508 0
0.2000000028 -0.03333333508 0
0.1866666676 -0.03333333508 0
0.173333332 -0.03333333508 0
0.1599999964 -0.03333333508 0
0.1466666608 -0.03333333508 0
0.1333333404 -0.03333333508 0
0.1199999972 -0.03333333508 0
0.1066666692 -0.03333333508 0
0.0933333336 -0.03333333508 0
0.0799999984 -0.03333333508 0
0.06666667 -0.03333333508 0
0.0533333348 -0.03333333508 0
0.03999999912 -0.03333333508 0
0.02666666732 -0.03333333508 0
0.01333333364 -0.03333333508 0
0.0 -0.03333333508 0
0.400000004 -0.0466666668 0
0.3866666556 -0.0466666668 0
0.3733333348 -0.0466666668 0
0.3600000144 -0.0466666668 0
0.346666664 -0.0466666668 0
0.3333333432 -0.0466666668 0
0.3199999928 -0.0466666668 0
0.3066666724 -0.0466666668 0
0.293333322 -0.0466666668 0
0.2800000012 -0.0466666668 0
0.2666666804 -0.0466666668 0
0.25333333 -0.0466666668 0
0.2399999948 -0.0466666668 0
0.226666674 -0.0466666668 0
0.2133333384 -0.0466666668 0
0.2000000028 -0.0466666668 0
0.1866666676 -0.0466666668 0
0.173333332 -0.0466666668 0
0.1599999964 -0.0466666668 0
0.1466666608 -0.0466666668 0
0.1333333404 -0.0466666668 0
0.1199999972 -0.0466666668 0
0.1066666692 -0.0466666668 0
0.0933333336 -0.0466666668 0
0.0799999984 -0.0466666668 0
0.06666667 -0.0466666668 0
0.0533333348 -0.0466666668 0
0.03999999912 -0.0466666668 0
0.02666666732 -0.0466666668 0
0.01333333364 -0.0466666668 0
0.0 -0.0466666668 0
0.400000004 -0.0599999988 0
0.3866666556 -0.0599999988 0
0.3733333348 -0.0599999988 0
0.3600000144 -0.0599999988 0
0.346666664 -0.0599999988 0
0.3333333432 -0.0599999988 0
0.3199999928 -0.0599999988 0
0.3066666724 -0.0599999988 0
0.293333322 -0.0599999988 0
0.2800000012 -0.0599999988 0
0.2666666804 -0.0599999988 0
0.25333333 -0.0599999988 0
0.2399999948 -0.0599999988 0
0.226666674 -0.0599999988 0
0.2133333384 -0.0599999988 0
0.2000000028 -0.0599999988 0
0.1866666676 -0.0599999988 0
0.173333332 -0.0599999988 0
0.1599999964 -0.0599999988 0
0.1466666608 -0.0599999988 0
0.1333333404 -0.0599999988 0
0.1199999972 -0.0599999988 0
0.1066666692 -0.0599999988 0
0.0933333336 -0.0599999988 0
0.0799999984 -0.0599999988 0
0.06666667 -0.0599999988 0
0.0533333348 -0.0599999988 0
0.03999999912 -0.0599999988 0
0.02666666732 -0.0599999988 0
0.01333333364 -0.0599999988 0
0.0 -0.0599999988 0
0.400000004 -0.0733333304 0
0.3866666556 -0.0733333304 0
0.3733333348 -0.0733333304 0
0.3600000144 -0.0733333304 0
0.346666664 -0.0733333304 0
0.3333333432 -0.0733333304 0
0.3199999928 -0.0733333304 0
0.3066666724 -0.0733333304 0
0.293333322 -0.0733333304 0
0.2800000012 -0.0733333304 0
0.2666666804 -0.0733333304 0
0.25333333 -0.0733333304 0
0.2399999948 -0.0733333304 0
0.226666674 -0.0733333304 0
0.2133333384 -0.0733333304 0
0.2000000028 -0.0733333304 0
0.1866666676 -0.0733333304 0
0.173333332 -0.0733333304 0
0.1599999964 -0.0733333304 0
0.1466666608 -0.0733333304 0
0.1333333404 -0.0733333304 0
0.1199999972 -0.0733333304 0
0.1066666692 -0.0733333304 0
0.0933333336 -0.0733333304 0
0.0799999984 -0.0733333304 0
0.06666667 -0.0733333304 0
0.0533333348 -0.0733333304 0
0.03999999912 -0.0733333304 0
0.02666666732 -0.0733333304 0
0.01333333364 -0.0733333304 0
0.0 -0.0733333304 0
0.400000004 -0.086666666 0
0.3866666556 -0.086666666 0
0.3733333348 -0.086666666 0
0.3600000144 -0.086666666 0
0.346666664 -0.086666666 0
0.3333333432 -0.086666666 0
0.3199999928 -0.086666666 0
0.3066666724 -0.086666666 0
0.293333322 -0.086666666 0
0.2800000012 -0.086666666 0
0.2666666804 -0.086666666 0
0.25333333 -0.086666666 0
0.2399999948 -0.086666666 0
0.226666674 -0.086666666 0
0.2133333384 -0.086666666 0
0.2000000028 -0.086666666 0
0.1866666676 -0.086666666 0
0.173333332 -0.086666666 0
0.1599999964 -0.086666666 0
0.1466666608 -0.086666666 0
0.1333333404 -0.086666666 0
0.1199999972 -0.086666666 0
0.1066666692 -0.086666666 0
0.0933333336 -0.086666666 0
0.0799999984 -0.086666666 0
0.06666667 -0.086666666 0
0.0533333348 -0.086666666 0
0.03999999912 -0.086666666 0
0.02666666732 -0.086666666 0
0.01333333364 -0.086666666 0
0.0 -0.086666666 0
0.400000004 -0.1000000016 0
0.3866666556 -0.1000000016 0
0.3733333348 -0.1000000016 0
0.3600000144 -0.1000000016 0
0.346666664 -0.1000000016 0
0.3333333432 -0.1000000016 0
0.3199999928 -0.1000000016 0
0.3066666724 -0.1000000016 0
0.293333322 -0.1000000016 0
0.2800000012 -0.1000000016 0
0.2666666804 -0.1000000016 0
0.25333333 -0.1000000016 0
0.2399999948 -0.1000000016 0
0.226666674 -0.1000000016 0
0.2133333384 -0.1000000016 0
0.2000000028 -0.1000000016 0
0.1866666676 -0.1000000016 0
0.173333332 -0.1000000016 0
0.1599999964 -0.1000000016 0
0.1466666608 -0.1000000016 0
0.1333333404 -0.1000000016 0
0.1199999972 -0.1000000016 0
0.1066666692 -0.1000000016 0
0.0933333336 -0.1000000016 0
0.0799999984 -0.1000000016 0
0.06666667 -0.1000000016 0
0.0533333348 -0.1000000016 0
0.03999999912 -0.1000000016 0
0.02666666732 -0.1000000016 0
0.01333333364 -0.1000000016 0
0.0 -0.1000000016 0
0.400000004 -0.1133333372 0
0.3866666556 -0.1133333372 0
0.3733333348 -0.1133333372 0
0.3600000144 -0.1133333372 0
0.346666664 -0.1133333372 0
0.3333333432 -0.1133333372 0
0.3199999928 -0.1133333372 0
0.3066666724 -0.1133333372 0
0.293333322 -0.1133333372 0
0.2800000012 -0.1133333372 0
0.2666666804 -0.1133333372 0
0.25333333 -0.1133333372 0
0.2399999948 -0.1133333372 0
0.226666674 -0.1133333372 0
0.2133333384 -0.1133333372 0
0.2000000028 -0.1133333372 0
0.1866666676 -0.1133333372 0
0.173333332 -0.1133333372 0
0.1599999964 -0.1133333372 0
0.1466666608 -0.1133333372 0
0.1333333404 -0.1133333372 0
0.1199999972 -0.1133333372 0
0.1066666692 -0.1133333372 0
0.0933333336 -0.1133333372 0
0.0799999984 -0.1133333372 0
0.06666667 -0.1133333372 0
0.0533333348 -0.1133333372 0
0.03999999912 -0.1133333372 0
0.02666666732 -0.1133333372 0
0.01333333364 -0.1133333372 0
0.0 -0.1133333372 0
0.400000004 -0.1266666652 0
0.3866666556 -0.1266666652 0
0.3733333348 -0.1266666652 0
[...]
POINT_DATA 961
SCALARS Temp float 1
LOOKUP_TABLE default
0.7325835304434298
0.7618431613485709
0.7828409638309597
0.798108479325949
0.8092951709361431
0.8175321123296097
0.8236245573181803
0.828152096421436
0.83153657873687
0.8340870976233179
0.8360328187548354
0.8375457431938795
0.8387573154187635
0.8397713487862207
0.8406736697385478
0.8415397684039934
0.84244180440053
0.8434550469913027
0.844664640828967
0.8461733460947352
0.8481109648349856
0.8506467511896725
0.8540052307120948
0.8584886769128892
0.8645072864419094
0.8726220030241074
0.883605529022804
0.8985315840574767
0.9189108637257721
0.9469358244852347
0.98608425637569
0.7732278570676435
0.8019189893143803
0.822691261768226
0.8378752075065709
0.8490234884249676
0.8572446641496774
0.8633323623226257
0.8678606401302121
0.8712484552701182
0.8738033965804572
0.8757538572377837
0.8772714748599685
0.8784875652751987
0.8795059389877316
0.8804124895006115
0.8812828151552289
0.8821891987906174
0.8832070322394974
0.8844215635706506
0.8859356100653871
0.8878789415164958
0.8904206080900059
0.8937846351055552
0.8982722486190486
0.9042916172539306
0.9123998214194058
0.9233621400477136
0.9382369480759222
0.9585029929873425
0.9862422243511716
1.024470178915395
2.6761571511154547
2.6804196995347143
2.692299545785293
2.703256402153472
2.712316919728643
2.7195258179739654
2.725170288086465
2.7295603654625182
2.732971053434546
2.73563059444452
2.7377236448861018
2.7393986723100294
2.740775972387569
2.7419551671221734
2.7430218778508584
2.744053691920142
2.745125711870159
2.7463159977142713
2.7477111963757177
2.749412708101631
2.7515437341746236
2.7542574392767536
2.757746369282696
2.762252754331315
2.7680780884819693
2.7755870742733584
2.7851918087955934
2.7972741429734196
2.8118929027541313
2.8277393574217253
2.833428401866257
4.555370740304948
4.557696908387191
4.563406239623302
4.570540306248344
4.577304557619745
4.58316911103698
4.588047859854988
4.592022869776312
4.595229870518418
4.597811908081868
4.599901674244449
4.6016162266089475
4.603057212604629
4.604313461701474
4.605464497857541
4.606584391359466
4.607745746930252
4.6090237693824765
4.61050043946236
4.6122688109859435
4.614437337740478
4.6171339287030895
4.6205088436311925
4.624734621495777
4.629998732473902
4.636479660697814
4.644284915063441
4.653297835475984
4.662808999083047
4.670422937283748
4.6735250903628565
6.429033676333686
6.430271661689226
6.433617436085012
6.438147564835704
6.4429718823205775
6.4475049755457405
6.451505888490518
6.454917717461469
6.457773240262343
6.460143780676866
6.462113414008634
6.4637666971526215
6.46518365911958
6.4664386487904615
6.467601178369836
6.46873781266587
6.4699145976502175
6.4711997156072645
6.472666164862477
6.474394227520598
6.476473342220382
6.479002701687701
6.482089223640315
6.485840533211774
6.490348303152379
6.495653522143991
6.501678125326079
6.508098704606034
6.514132644732661
6.518590956354007
6.520240906735512
8.299346973357721
8.300101022577444
8.30218747728278
8.305174754180108
8.308563347993713
8.311954795425335
8.315105770954629
8.317906473449264
8.320331514771032
8.322402853908615
8.32416631773959
8.325677959211365
8.326996817415745
8.328181622574197
8.3292898238277
8.330377968712375
8.331502824164135
8.332722798405069
8.334099324620361
8.335697828868497
8.33758775823856
8.339840872052775
8.342526439416082
8.345701299234051
8.349391407409291
8.353560240363416
8.358059223545766
8.362561992467977
8.366535570791847
8.369312505767327
8.37031635132502
10.16740499466736
10.167885269309464
10.169239296466333
10.17124095516165
10.17360757715917
10.176080982938451
10.178473927218446
10.180676646015353
10.182641725021996
10.184363737485937
10.18586269619186
10.187172594537783
10.188334293674435
10.189391564606451
10.19038921359312
10.191372522992177
10.192387449023283
10.193481123958756
10.19470228527175
10.196101218919802
10.197728689479607
10.199633140211791
10.20185509776751
10.20441746280645
10.20731001822999
10.210467135483839
10.213740523222
10.216878872128751
10.219536597130976
10.221335737306187
10.221974106018449
12.033690087481434
12.03399946159562
12.03488133180489
12.036212287870686
12.037829325555094
12.039571360536344
12.041308422958021
12.042953052214559
12.044457890745713
12.045806756664394
12.047004876736224
12.04807085274565
12.049030987352921
12.049915707485962
12.050757546345963
12.05159018829969
12.052448153003413
12.053366735919036
12.054381867576794
12.055529526121152
12.056844265452543
12.058356324133092
12.060086628080773
12.062039062583878
12.064189602999154
12.066473124343629
12.068771428754694
12.070909912658736
12.072672765966667
12.07384186652624
12.074252177894019
13.898441751460147
13.89863273438693
13.899181125848767
13.900020221822944
13.9010588754417
13.902202356636765
13.90336904867907
13.904499212371581
13.905556380023377
13.906524069022122
13.907400810374112
13.908195335030104
13.908922780984588
13.909602071248223
13.910254271958701
13.910901668536019
13.911567291434046
13.912274621530159
13.913047227295444
13.913908067188164
13.914878154689395
13.915974252673312
13.917205232121969
13.9185669128073
13.920035542271425
13.921561057141833
13.923062658463037
13.924430588800973
13.92553782013837
13.926262288887285
13.92651472905104
15.761776619962623
15.761876547696142
15.762165082926034
15.762611344041364
15.763172216884229
15.763801445470145
15.764457452946372
15.76510808160193
15.76573209925534
15.766318324638656
15.766863614440954
15.767370623150118
15.767845874617546
15.768298328738691
15.76873840992101
15.769177395516932
15.769627037951203
15.770099278735401
15.770605921431368
15.771158120881156
15.771765533761956
15.772434975982938
15.773168442190173
15.773960488480613
15.774795195441001
15.775643428234913
15.776461651514659
15.777193895159327
15.777778076122042
15.778156410043119
15.778287540377857
17.623750533067593
17.62377176183386
17.62383415715982
17.6239340830407
17.624066192483863
17.62422426726767
17.624402047260823
17.624593872589703
17.62479507597132
17.62500212620911
17.625212599034665
17.625425038332267
17.62563877243463
17.625853726909433
17.626070247208055
17.626288937027894
17.626510511333727
17.62673565195537
17.626964856194313
17.627198267470046
17.627435479122187
17.627675310426362
17.627915558050066
17.628152757774462
17.62838200006059
17.628596887037993
17.628789727616258
17.628952054870986
17.629075485815722
17.629152824174874
17.62917918178799
17.72763714748283
17.727654709523378
17.727706519979698
17.727790090015198
17.727901692963385
17.72803687771377
17.72819100409108
17.728359691754882
17.728539134703276
17.728726260404315
17.72891876822972
17.729115075348368
17.729314211001736
17.729515690224243
17.729719379395974
17.729925362552414
17.730133812383183
17.73034485980603
17.7305584584767
17.730774239545276
17.730991354282896
17.73120830953859
17.731422803511627
17.731631593746165
17.731830427937354
17.732014093518696
17.73217663468781
17.732311767856203
17.732413483884972
17.732476759703356
17.7324982443796
17.83141566795087
17.831430489491552
17.83147434121367
17.831545468298707
17.83164120453869
17.831758295629154
17.831893251078483
17.832042656934625
17.832203416620587
17.832372894972103
17.832548981161324
17.832730079723046
17.83291505435826
17.83310314608858
17.833293874879367
17.833486933734434
17.833682081465426
17.833879031775822
17.834077338978396
17.83427627980069
17.834474732696375
17.834671062017907
17.834863014740336
17.835047655746784
17.835221360343134
17.835379898273157
17.83551863133303
17.835632832035827
17.835718104447764
17.8357708518817
17.83578870950079
17.93509128773731
17.935104011828418
17.93514174275877
17.935203209200967
17.935286455955826
17.935389052899676
17.935508330465563
17.935641598190593
17.93578632529554
17.935940260503067
17.93610149853967
17.93626849298872
17.93644003000705
17.93661517735142
17.936793214445252
17.936973551306412
17.937155643151986
17.93733890038489
17.93752259656705
17.93770577619982
17.937887165552013
17.938065094237963
17.938237433757987
17.938401573086768
17.938554441139033
17.938692596731883
17.938812394301575
17.938910223307296
17.93898280360686
17.939027498499655
17.939042594911847
18.03866789777406
18.03867898438846
18.038711917869627
18.03876575323307
18.03883902202894
18.03892987050909
18.039036219918337
18.03915592019916
18.039286884218672
18.039427183320463
18.039575108357035
18.039729191470478
18.03988819710521
18.04005109183298
18.040216995991095
18.040385123451863
18.04055471607191
18.040724973458
18.040894981717127
18.041063644101843
18.04122961735994
18.041391260830114
18.041546602617167
18.04169333804265
18.04182886432371
18.04195036393015
18.04205493806604
18.042139785035303
18.042202409189557
18.04224083417292
18.042253788773106
18.14214843186282
18.14215821921889
18.14218733370186
18.14223505519767
18.142300254525907
18.142381486676868
18.142477101713236
18.142585353745744
18.14270450054354
18.142832878064766
18.14296895295658
18.14311134657506
18.143258835562563
18.143410335413627
18.143564868080222
18.14372151853143
18.143879386159966
18.144037531920237
18.144194925138567
18.14435039318362
18.144502577674213
18.144649903227215
18.144790561368033
18.144922521112115
18.145043566540174
18.14515136908379
18.145243592876
18.145318027459442
18.145372737034638
18.14540620817711
18.145417475793135
18.242216328477156
18.242225066578843
18.242251088359485
18.242293831625034
18.242352407735368
18.242425665673515
18.24251226997299
18.242610778673757
18.242719717446658
18.24283763708941
18.242963157232452
18.24309498941821
18.243231942677326
18.243372916058505
18.243516877870025
18.243662835387127
18.243809800145716
18.2439567495914
18.244102588842505
18.244246115576765
18.244385991253775
18.244520723592686
18.24464866156899
18.24476801178046
18.244876874404248
18.244973303780423
18.24505539077719
18.245121361801182
18.245169686542297
18.245199181934254
18.245209099194753
18.33553110798935
18.33553898387719
18.33556245821839
18.335601081708713
18.335654139061436
18.33572069376208
18.33579964364612
18.335889777195636
18.335989829019837
18.33609852403177
18.33621461326524
18.33633689472279
18.336464221342798
18.336595499323323
18.33672967575382
18.336865718403228
18.337002592034974
18.337139231740665
18.337274516649273
18.337407246626693
18.33753612460317
18.337659748470582
18.337776612816047
18.33788512746384
18.337983649923288
18.338070535282476
18.338144200423873
18.338203198293762
18.33824629655726
18.33827255187231
18.33828137111638
18.42206044547671
18.422067605297872
18.422088959785505
18.422124141547734
18.422172561967532
18.422233442952624
18.422305857167952
18.422388769112345
18.422481077001166
18.422581646752732
18.422689341197724
18.422803038374514
18.422921640453723
18.42304407577882
18.423169292500134
18.42329624596509
18.423423883568375
18.423551127233292
18.423676856404008
18.4237998937027
18.42391899532239
18.424032849279996
18.424140081101573
18.424239272592104
18.42432899025727
18.424407826091727
18.42447444774408
18.42452765465258
18.42456643614758
18.424590025301814
18.424597942727278
18.5017745907355
18.501781151139532
18.501800728159576
18.501833014645275
18.50187751571417
18.501933571620114
18.50200038733004
18.502077062840566
18.502162625151104
18.502256054558927
18.502356308545657
18.502462337654315
18.502573094619063
18.502687538770264
18.50280463393324
18.502923341473128
18.503042611624746
18.503161372975583
18.503278522512684
18.503392917939873
18.50350337383611
18.503608664122567
18.50370752994777
18.503798697712604
18.503880903615773
18.50395292698115
18.504013629669497
18.504061998914466
18.50409719078968
18.504118569831583
18.504125740882454
18.574646293366747
18.57465234941302
18.57467042878879
18.574700269185772
18.574741445881735
18.57479338846998
18.5748554029648
18.574926694470186
18.575006391927957
18.575093568658573
18.575187262061775
18.575286487390695
18.57539024672022
18.575497534838007
18.5756073401525
18.575718641893232
18.57583040627707
18.57594158125023
18.576051091796057
18.57615783712038
18.576260690868487
18.57635850632914
18.576450125439507
18.576534395646927
18.57661019101325
18.576676439569752
18.57673215455426
18.576776467474346
18.57680866107628
18.576828198946973
18.57683474904705
18.640650746945212
18.640656377684433
18.640673192716722
18.640700963465363
18.640739318249338
18.640787754728002
18.640845656725233
18.6409123114369
18.640986928907058
18.641068658289296
18.64115660430676
18.641249839283116
18.64134741179364
18.641448353472654
18.641551682028332
18.641656401462043
18.64176150179024
18.641865957672003
18.641968727575303
18.64206875446451
18.642164968830308
18.642256295624634
18.64234166373431
18.642420021567276
18.6424903552367
18.642551711206877
18.642603221340046
18.64264412876276
18.642673813254383
18.642691813724248
18.64269784590102
18.699765938585358
18.69977121106205
18.699786960070576
18.699812982623804
18.69984894746345
18.699894404489626
18.699948797828167
18.700011479124445
18.700081723169745
18.700158740993835
18.70024169384362
18.700329703811228
18.7004218621234
18.70051723649722
18.700614875616004
18.700713811517424
18.70081306189269
18.700911631541665
18.701008514325693
18.701102696335973
18.701193160840226
18.70127889627232
18.701358905797246
18.701432221667893
18.7014979210016
18.701555144751136
18.70160311807728
18.70164117090382
18.701668757803887
18.70168547537125
18.70169107576169
18.751971867664526
18.751976839840808
18.751991694620777
18.752016248540393
18.75205020130863
18.752093143104723
18.752144564960446
18.75220386924394
18.752270382474567
18.752343366078932
18.75242202848537
18.75250553464578
18.7525930139751
18.752683568018934
18.75277627593115
18.75287019840195
18.752964381798623
18.75305786164919
18.753149666577063
18.753238823199354
18.75332436235466
18.75340532770119
18.753480785167092
18.753549836201206
18.753611631604564
18.753665387657943
18.75371040297424
18.75374607513052
18.753771916545674
18.753787568172662
18.75379281007456
18.797251487285227
18.797256210205756
18.797270322307806
18.797293655044765
18.797325931875676
18.79736677404992
18.79741570906777
18.797472179146762
18.797535551987345
18.797605129814535
18.797680160053453
18.79775984399312
18.797843344413373
18.797929793415573
18.798018298577205
18.798107947959096
18.798197815543464
18.798286966150574
18.79837446076179
18.7984593626036
18.798540744212524
18.79861769635476
18.798689337263614
18.798754824938833
18.798813369433894
18.798864246802513
18.798906813311334
18.798940519178544
18.798964921528025
18.79897969542406
18.7989846423194
18.83558973578178
18.835594255216655
18.835607760725885
18.835630095107234
18.835660999940274
18.835700120300338
18.835747011846994
18.835801147848294
18.835861928461004
18.83592868852454
18.83600070717916
18.836077215875378
18.836157405735904
18.836240435458823
18.836325437921612
18.836411525933396
18.83649779857154
18.836583347094702
18.83666726122134
18.836748636011286
18.836826579463214
18.836900221578382
18.83696872335353
18.837031288291676
18.837087173485436
18.83713570191028
18.83717627467404
18.837208382632774
18.8372316172212
18.837245679571417
18.837250387435986
18.866974241797877
18.866978599510006
18.86699162274255
18.867013162793906
18.867042974859753
18.867080721996192
18.86712598123861
18.867178249606678
18.867236952321694
18.86730144970551
18.867371046024672
18.867444997010978
18.86752251700982
18.867602786903213
18.8676849610058
18.867768173321487
18.867851544489763
18.867934188377106
18.868015218999606
18.868093757928776
18.868168942216567
18.868239933501414
18.868305926765785
18.86836616121782
18.868419930458742
18.86846659354668
18.868505585808506
18.868536428919622
18.868558740209114
18.868572240411815
18.8685767595085
18.8913949052872
18.89139914004028
18.891411796491347
18.891432732106363
18.89146171198263
18.891498412297842
18.891542425760925
18.89159326691484
18.89165037961416
18.891713143300095
18.89178088129548
18.89185286797362
18.891928335742442
18.892006482962113
18.892086481024403
18.892167480940657
18.892248620689717
18.89232903225718
18.892407848979015
18.89248421328125
18.892557284798542
18.892626249470744
18.89269032809989
18.892748786754012
18.89280094626462
18.89284619240644
18.892883985688975
18.89291387035574
18.892935482623546
18.892948557484388
18.892952933795744
18.908843770868884
18.908847919253155
18.90886031801818
18.90888082881372
18.908909223465542
18.908945187091845
18.908988323119196
18.9090381581291
18.90909414885013
18.909155688023965
18.909222112334888
18.909292709341823
18.909366724347286
18.909443368300106
18.909521824984406
18.909601257813407
18.909680817427116
18.909759649011225
18.90983689990103
18.909911727522232
18.909983307617292
18.910050843314824
18.910113573534925
18.910170783058955
18.910221811570477
18.91026606324062
18.910303015840086
18.910332229023975
18.910353351869485
18.91036612905498
18.910370405460082
18.919315337328705
18.91931943446015
18.91933168028983
18.919351938893577
18.91937998600337
18.91941551193712
18.919458126369847
18.919507362923255
18.919562685883463
18.91962349583515
18.919689137382324
18.919758905943848
18.919832054553932
18.9199078017522
18.91998533882993
18.9200638367357
18.920142453808694
18.920220343249945
18.920296660866775
18.92037057312022
18.920441265404364
18.92050795109182
18.92056987984519
18.92062634748931
18.920676704787056
18.920720366682357
18.920756821023332
18.920785636440357
18.920806469485463
18.920819070458794
18.920823287731757
18.922806219156506
18.922810299297023
18.922822494423635
18.922842669407224
18.922870601260676
18.922905982008537
18.922948423379058
18.922997461311088
18.92305256258273
18.923113130370666
18.9231785119029
18.9232480052097
18.923320865901466
18.92339631505394
18.923473546472138
18.923551733631392
18.92363003745361
18.92370761382666
18.923783621393255
18.923857229631516
18.92392762715021
18.92399403072482
18.92405569357762
18.92411191518424
18.924162049962693
18.924205516404562
18.924241805671723
18.924270489342085
18.924291226420124
18.924303769049075
18.924307966744585
