# vtk DataFile Version 2.0
Unstructured Grid Example
ASCII
DATASET UNSTRUCTURED_GRID

POINTS 961 float
0.400000004 0.01999999956 0
0.3866666556 0.01999999956 0
0.3733333348 0.01999999956 0
0.3600000144 0.01999999956 0
0.346666664 0.01999999956 0
0.3333333432 0.01999999956 0
0.3199999928 0.01999999956 0
0.3066666724 0.01999999956 0
0.293333322 0.01999999956 0
0.2800000012 0.01999999956 0
0.2666666804 0.01999999956 0
0.25333333 0.01999999956 0
0.2399999948 0.01999999956 0
0.226666674 0.01999999956 0
0.2133333384 0.01999999956 0
0.2000000028 0.01999999956 0
0.1866666676 0.01999999956 0
0.173333332 0.01999999956 0
0.1599999964 0.01999999956 0
0.1466666608 0.01999999956 0
0.1333333404 0.01999999956 0
0.1199999972 0.01999999956 0
0.1066666692 0.01999999956 0
0.0933333336 0.01999999956 0
0.0799999984 0.01999999956 0
0.06666667 0.01999999956 0
0.0533333348 0.01999999956 0
0.03999999912 0.01999999956 0
0.02666666732 0.01999999956 0
0.01333333364 0.01999999956 0
0.0 0.01999999956 0
0.400000004 0.00666666684 0
0.3866666556 0.00666666684 0
0.3733333348 0.00666666684 0
0.3600000144 0.00666666684 0
0.346666664 0.00666666684 0
0.3333333432 0.00666666684 0
0.3199999928 0.00666666684 0
0.3066666724 0.00666666684 0
0.293333322 0.00666666684 0
0.2800000012 0.00666666684 0
0.2666666804 0.00666666684 0
0.25333333 0.00666666684 0
0.2399999948 0.00666666684 0
0.226666674 0.00666666684 0
0.2133333384 0.00666666684 0
0.2000000028 0.00666666684 0
0.1866666676 0.00666666684 0
0.173333332 0.00666666684 0
0.1599999964 0.00666666684 0
0.1466666608 0.00666666684 0
0.1333333404 0.00666666684 0
0.1199999972 0.00666666684 0
0.1066666692 0.00666666684 0
0.0933333336 0.00666666684 0
0.0799999984 0.00666666684 0
0.06666667 0.00666666684 0
0.0533333348 0.00666666684 0
0.03999999912 0.00666666684 0
0.02666666732 0.00666666684 0
0.01333333364 0.00666666684 0
0.0 0.00666666684 0
0.400000004 -0.00666666684 0
0.3866666556 -0.00666666684 0
0.3733333348 -0.00666666684 0
0.3600000144 -0.00666666684 0
0.346666664 -0.00666666684 0
0.3333333432 -0.00666666684 0
0.3199999928 -0.00666666684 0
0.3066666724 -0.00666666684 0
0.293333322 -0.00666666684 0
0.2800000012 -0.00666666684 0
0.2666666804 -0.00666666684 0
0.25333333 -0.00666666684 0
0.2399999948 -0.00666666684 0
0.226666674 -0.00666666684 0
0.2133333384 -0.00666666684 0
0.2000000028 -0.00666666684 0
0.1866666676 -0.00666666684 0
0.173333332 -0.00666666684 0
0.1599999964 -0.00666666684 0
0.1466666608 -0.00666666684 0
0.1333333404 -0.00666666684 0
0.1199999972 -0.00666666684 0
0.1066666692 -0.00666666684 0
0.0933333336 -0.00666666684 0
0.0799999984 -0.00666666684 0
0.06666667 -0.00666666684 0
0.0533333348 -0.00666666684 0
0.03999999912 -0.00666666684 0
0.02666666732 -0.00666666684 0
0.01333333364 -0.00666666684 0
0.0 -0.00666666684 0
0.400000004 -0.01999999956 0
0.3866666556 -0.01999999956 0
0.3733333348 -0.01999999956 0
0.3600000144 -0.01999999956 0
0.346666664 -0.01999999956 0
0.3333333432 -0.01999999956 0
0.3199999928 -0.01999999956 0
0.3066666724 -0.01999999956 0
0.293333322 -0.01999999956 0
0.2800000012 -0.01999999956 0
0.2666666804 -0.01999999956 0
0.25333333 -0.01999999956 0
0.2399999948 -0.01999999956 0
0.226666674 -0.01999999956 0
0.2133333384 -0.01999999956 0
0.2000000028 -0.01999999956 0
0.1866666676 -0.01999999956 0
0.173333332 -0.01999999956 0
0.1599999964 -0.01999999956 0
0.1466666608 -0.01999999956 0
0.1333333404 -0.01999999956 0
0.1199999972 -0.01999999956 0
0.1066666692 -0.01999999956 0
0.0933333336 -0.01999999956 0
0.0799999984 -0.01999999956 0
0.06666667 -0.01999999956 0
0.0533333348 -0.01999999956 0
0.03999999912 -0.01999999956 0
0.02666666732 -0.01999999956 0
0.01333333364 -0.01999999956 0
0.0 -0.01999999956 0
0.400000004 -0.03333333508 0
0.3866666556 -0.03333333508 0
0.3733333348 -0.03333333508 0
0.3600000144 -0.03333333508 0
0.346666664 -0.03333333508 0
0.3333333432 -0.03333333508 0
0.3199999928 -0.03333333508 0
0.3066666724 -0.03333333508 0
0.293333322 -0.03333333508 0
0.2800000012 -0.03333333508 0
0.2666666804 -0.03333333508 0
0.25333333 -0.03333333508 0
0.2399999948 -0.03333333508 0
0.226666674 -0.03333333508 0
0.2133333384 -0.03333333508 0
0.2000000028 -0.03333333508 0
0.1866666676 -0.03333333508 0
0.173333332 -0.03333333508 0
0.1599999964 -0.03333333508 0
0.1466666608 -0.03333333508 0
0.1333333404 -0.03333333508 0
0.1199999972 -0.03333333508 0
0.1066666692 -0.03333333508 0
0.0933333336 -0.03333333508 0
0.0799999984 -0.03333333508 0
0.06666667 -0.03333333508 0
0.0533333348 -0.03333333508 0
0.03999999912 -0.03333333508 0
0.02666666732 -0.03333333508 0
0.01333333364 -0.03333333508 0
0.0 -0.03333333508 0
0.400000004 -0.0466666668 0
0.3866666556 -0.0466666668 0
0.3733333348 -0.0466666668 0
0.3600000144 -0.0466666668 0
0.346666664 -0.0466666668 0
0.3333333432 -0.0466666668 0
0.3199999928 -0.0466666668 0
0.3066666724 -0.0466666668 0
0.293333322 -0.0466666668 0
0.2800000012 -0.0466666668 0
0.2666666804 -0.0466666668 0
0.25333333 -0.0466666668 0
0.2399999948 -0.0466666668 0
0.226666674 -0.0466666668 0
0.2133333384 -0.0466666668 0
0.2000000028 -0.0466666668 0
0.1866666676 -0.0466666668 0
0.173333332 -0.0466666668 0
0.1599999964 -0.0466666668 0
0.1466666608 -0.0466666668 0
0.1333333404 -0.0466666668 0
0.1199999972 -0.0466666668 0
0.1066666692 -0.0466666668 0
0.0933333336 -0.0466666668 0
0.0799999984 -0.0466666668 0
0.06666667 -0.0466666668 0
0.0533333348 -0.0466666668 0
0.03999999912 -0.0466666668 0
0.02666666732 -0.0466666668 0
0.01333333364 -0.0466666668 0
0.0 -0.0466666668 0
0.400000004 -0.0599999988 0
0.3866666556 -0.0599999988 0
0.3733333348 -0.0599999988 0
0.3600000144 -0.0599999988 0
0.346666664 -0.0599999988 0
0.3333333432 -0.0599999988 0
0.3199999928 -0.0599999988 0
0.3066666724 -0.0599999988 0
0.293333322 -0.0599999988 0
0.2800000012 -0.0599999988 0
0.2666666804 -0.0599999988 0
0.25333333 -0.0599999988 0
0.2399999948 -0.0599999988 0
0.226666674 -0.0599999988 0
0.2133333384 -0.0599999988 0
0.2000000028 -0.0599999988 0
0.1866666676 -0.0599999988 0
0.173333332 -0.0599999988 0
0.1599999964 -0.0599999988 0
0.1466666608 -0.0599999988 0
0.1333333404 -0.0599999988 0
0.1199999972 -0.0599999988 0
0.1066666692 -0.0599999988 0
0.0933333336 -0.0599999988 0
0.0799999984 -0.0599999988 0
0.06666667 -0.0599999988 0
0.0533333348 -0.0599999988 0
0.03999999912 -0.0599999988 0
0.02666666732 -0.0599999988 0
0.01333333364 -0.0599999988 0
0.0 -0.0599999988 0
0.400000004 -0.0733333304 0
0.3866666556 -0.0733333304 0
0.3733333348 -0.0733333304 0
0.3600000144 -0.0733333304 0
0.346666664 -0.0733333304 0
0.3333333432 -0.0733333304 0
0.3199999928 -0.0733333304 0
0.3066666724 -0.0733333304 0
0.293333322 -0.0733333304 0
0.2800000012 -0.0733333304 0
0.2666666804 -0.0733333304 0
0.25333333 -0.0733333304 0
0.2399999948 -0.0733333304 0
0.226666674 -0.0733333304 0
0.2133333384 -0.0733333304 0
0.2000000028 -0.0733333304 0
0.1866666676 -0.0733333304 0
0.173333332 -0.0733333304 0
0.1599999964 -0.0733333304 0
0.1466666608 -0.0733333304 0
0.1333333404 -0.0733333304 0
0.1199999972 -0.0733333304 0
0.1066666692 -0.0733333304 0
0.0933333336 -0.0733333304 0
0.0799999984 -0.0733333304 0
0.06666667 -0.0733333304 0
0.0533333348 -0.0733333304 0
0.03999999912 -0.0733333304 0
0.02666666732 -0.0733333304 0
0.01333333364 -0.0733333304 0
0.0 -0.0733333304 0
0.400000004 -0.086666666 0
0.3866666556 -0.086666666 0
0.3733333348 -0.086666666 0
0.3600000144 -0.086666666 0
0.346666664 -0.086666666 0
0.3333333432 -0.086666666 0
0.3199999928 -0.086666666 0
0.3066666724 -0.086666666 0
0.293333322 -0.086666666 0
0.2800000012 -0.086666666 0
0.2666666804 -0.086666666 0
0.25333333 -0.086666666 0
0.2399999948 -0.086666666 0
0.226666674 -0.086666666 0
0.2133333384 -0.086666666 0
0.2000000028 -0.086666666 0
0.1866666676 -0.086666666 0
0.173333332 -0.086666666 0
0.1599999964 -0.086666666 0
0.1466666608 -0.086666666 0
0.1333333404 -0.086666666 0
0.1199999972 -0.086666666 0
0.1066666692 -0.086666666 0
0.0933333336 -0.086666666 0
0.0799999984 -0.086666666 0
0.06666667 -0.086666666 0
0.0533333348 -0.086666666 0
0.03999999912 -0.086666666 0
0.02666666732 -0.086666666 0
0.01333333364 -0.086666666 0
0.0 -0.086666666 0
0.400000004 -0.1000000016 0
0.3866666556 -0.1000000016 0
0.3733333348 -0.1000000016 0
0.3600000144 -0.1000000016 0
0.346666664 -0.1000000016 0
0.3333333432 -0.1000000016 0
0.3199999928 -0.1000000016 0
0.3066666724 -0.1000000016 0
0.293333322 -0.1000000016 0
0.2800000012 -0.1000000016 0
0.2666666804 -0.1000000016 0
0.25333333 -0.1000000016 0
0.2399999948 -0.1000000016 0
0.226666674 -0.1000000016 0
0.2133333384 -0.1000000016 0
0.2000000028 -0.1000000016 0
0.1866666676 -0.1000000016 0
0.173333332 -0.1000000016 0
0.1599999964 -0.1000000016 0
0.1466666608 -0.1000000016 0
0.1333333404 -0.1000000016 0
0.1199999972 -0.1000000016 0
0.1066666692 -0.1000000016 0
0.0933333336 -0.1000000016 0
0.0799999984 -0.1000000016 0
0.06666667 -0.1000000016 0
0.0533333348 -0.1000000016 0
0.03999999912 -0.1000000016 0
0.02666666732 -0.1000000016 0
0.01333333364 -0.1000000016 0
0.0 -0.1000000016 0
0.400000004 -0.1133333372 0
0.3866666556 -0.1133333372 0
0.3733333348 -0.1133333372 0
0.3600000144 -0.1133333372 0
0.346666664 -0.1133333372 0
0.3333333432 -0.1133333372 0
0.3199999928 -0.1133333372 0
0.3066666724 -0.1133333372 0
0.293333322 -0.1133333372 0
0.2800000012 -0.1133333372 0
0.2666666804 -0.1133333372 0
0.25333333 -0.1133333372 0
0.2399999948 -0.1133333372 0
0.226666674 -0.1133333372 0
0.2133333384 -0.1133333372 0
0.2000000028 -0.1133333372 0
0.1866666676 -0.1133333372 0
0.173333332 -0.1133333372 0
0.1599999964 -0.1133333372 0
0.1466666608 -0.1133333372 0
0.1333333404 -0.1133333372 0
0.1199999972 -0.1133333372 0
0.1066666692 -0.1133333372 0
0.0933333336 -0.1133333372 0
0.0799999984 -0.1133333372 0
0.06666667 -0.1133333372 0
0.0533333348 -0.1133333372 0
0.03999999912 -0.1133333372 0
0.02666666732 -0.1133333372 0
0.01333333364 -0.1133333372 0
0.0 -0.1133333372 0
0.400000004 -0.1266666652 0
0.3866666556 -0.1266666652 0
0.3733333348 -0.1266666652 0
[...]
POINT_DATA 961
SCALARS Temp float 1
LOOKUP_TABLE default
0.7545072401863601
0.7846430837322205
0.8062708982975102
0.8219976431555641
0.8335218834116791
0.8420083774596812
0.8482863733131901
0.8529527431469461
0.8564419244914435
0.8590722431410546
0.8610797176760949
0.862641499713402
0.8638929762811455
0.864941080424561
0.8658742229403051
0.8667701712278665
0.8677032643517761
0.8687510456254065
0.8700012305465727
0.8715596781928842
0.8735600990393981
0.8761768356182638
0.8796411535504784
0.8842643882381466
0.890469019037313
0.898832768726843
0.9101514319130428
0.9255307914803101
0.9465266280155256
0.9753967976014571
1.0157229562268506
0.79635915595347
0.8259093988128176
0.8473049379441904
0.8629456105078297
0.8744302948234481
0.8829005606456013
0.8891736817425377
0.8938408309399022
0.8973334673581668
0.8999683667438907
0.9019807515556206
0.903547398586317
0.904803561866143
0.9058561710065499
0.9067937053752846
0.9076940433237132
0.9086316503175843
0.9096841953887193
0.9109395000092156
0.9125034815036087
0.91450981653102
0.9171326368970966
0.9206026923014159
0.9252302385256217
0.9314356652439622
0.939792715121559
0.9510895356165873
0.9664161035891996
0.9872952901614366
1.0158711410619863
1.05524901354642
2.755817799347556
2.7602084465039125
2.772445333468721
2.78373244667983
2.7930671178138153
2.8004952578010354
2.806312543759988
2.810838211153671
2.814355437621955
2.8170992567087505
2.8192598229926142
2.8209900271726625
2.822413750487033
2.823633585693291
2.8247377086372762
2.8258060226988704
2.8269158735219673
2.8281476536992844
2.8295906001778484
2.831349144535423
2.8335501705801622
2.8363514194423525
2.8399511867261067
2.844598930271648
2.850605130786276
2.858345345671138
2.8682439076555695
2.8806939355445174
2.895755741174593
2.912080892909467
2.9179417888893155
4.690842143040686
4.693238458123524
4.6991202116795785
4.706470265712731
4.713440240541765
4.719484273773015
4.724513578080703
4.728612590073865
4.7319210323583105
4.734586175118652
4.736744633654974
4.738516927790038
4.74000771057339
4.741308436706736
4.742500979097156
4.743661595217841
4.744865034048361
4.746188722887294
4.747717067572269
4.749545877392645
4.7517868202417315
4.754571597371478
4.758054922765095
4.762414445322847
4.767843174646393
4.774524838539113
4.782570023696567
4.791858371928727
4.801658908533732
4.809503927381925
4.812700088663521
6.620137047186882
6.6214126436529614
6.624860207828237
6.629528602472464
6.634500929607381
6.639174156727204
6.643300020513097
6.646819826588844
6.649767255026565
6.652215693177228
6.654251667660231
6.6559622055683985
6.657429673678596
6.658730590761876
6.659936495523562
6.661115891832848
6.662336749564828
6.663669238772339
6.665188489062896
6.666977130389568
6.669127220622102
6.6717408591850464
6.674928094425745
6.678799692148649
6.683449971497099
6.68892102577927
6.695132295430069
6.701750483083496
6.7079692705191984
6.712563761036202
6.714264044734625
8.545965758500174
8.546742980732253
8.548893678601539
8.551973302712959
8.555467326019304
8.558965274782667
8.562216451748904
8.565107680740592
8.567612727673556
8.569754125614669
8.57157899251157
8.57314498034008
8.57451281775156
8.575742915968545
8.576894367074484
8.578025334521485
8.579194207518773
8.580461065231322
8.581889101506272
8.583545621146417
8.58550206790867
8.587832263082829
8.59060745696099
8.593886088296328
8.59769477490727
8.601995766180766
8.606635881864623
8.611278800810444
8.61537538196977
8.618237984076403
8.619272746431818
10.469451894973753
10.469947204266749
10.471343723557723
10.473408524026812
10.475850416041729
10.478403416730695
10.480874591392437
10.483150800572922
10.485183118153639
10.486965860851369
10.488519545456754
10.489879086934167
10.491086472534068
10.492186685473133
10.493225774240589
10.494250276731641
10.495307424094563
10.496445658019137
10.497715072686248
10.499167356101037
10.500854687622363
10.502826853287779
10.505125481437481
10.507774040771823
10.510761882291533
10.514021275715994
10.517399340794157
10.520637084612542
10.52337841438057
10.525233908975014
10.525892232206255
12.391088921673463
12.391408278529763
12.392318700531646
12.393693048579522
12.395363384421525
12.39716373097103
12.398960144657106
12.400662454383202
12.402221785748225
12.403621367816395
12.404866474825354
12.405976152639504
12.406977375161931
12.407901361216968
12.408781496615855
12.409652350897634
12.410549352573657
12.411508728336004
12.412567358494673
12.413762172165576
12.415128631330521
12.416697752960939
12.41849096138302
12.420512128191824
12.422736376542396
12.425096495371909
12.42747060928044
12.429678749497269
12.431498515897507
12.432705148009916
12.433128595575827
14.311120394693464
14.311317886550171
14.311885058701835
14.312753178051583
14.313828317356865
14.315012841626546
14.316222607120103
14.317395990133729
14.318495324809625
14.319503519708286
14.320418938906643
14.321250445184782
14.322013494432644
14.322727436163014
14.32341382340196
14.324095462079255
14.324795923630465
14.325539242520145
14.326349543453098
14.327250323682179
14.32826307870648
14.329404928145351
14.330684865593156
14.332098445150955
14.333621065351018
14.335201029475186
14.336754990179678
14.33816978324873
14.339314471062634
14.34006325079971
14.340324128857215
16.229663557822857
16.22976734503823
16.23006711147075
16.230531019830224
16.231114614368554
16.231770185077675
16.23245482449071
16.23313531110109
16.233789662570896
16.234406236200442
16.23498165725077
16.235518512976967
16.236023367696415
16.236505288049432
16.23697484378194
16.23744347923899
16.237923125739748
16.238425908514742
16.238963811354513
16.2395481519763
16.24018870847518
16.240892337843764
16.24166093718712
16.242488749315044
16.243359235902155
16.24424225695965
16.245092852155324
16.24585326800968
16.24645947251495
16.246851882543822
16.246987860109666
18.14677329356533
18.146796108467743
18.146863213216008
18.146970832092112
18.147113407034272
18.147284463087864
18.147477463488247
18.147686471916863
18.147906557929012
18.148133945861133
18.148365986446034
18.148601015384443
18.148838165730584
18.1490771770098
18.14931821443059
18.1495617042711
18.149808184598704
18.150058158591555
18.150311940696223
18.15056948429551
18.150830181690278
18.15109263552841
18.151354404649258
18.151611760752555
18.151859500185715
18.15209090145309
18.15229792786483
18.1524717619706
18.152603692549885
18.152686251671803
18.15271437066918
18.25373332724734
18.253752375527707
18.253808608094026
18.253899430561972
18.254020953383353
18.254168521122452
18.254337264769674
18.25452256491838
18.25472037702188
18.254927396400863
18.255141099485854
18.25535968961039
18.25558198973528
18.255807314356076
18.256035332937287
18.256265934118453
18.256499094989262
18.25673474884725
18.256972647779175
18.257212215208177
18.257452385912764
18.25769143873004
18.25792682929279
18.258155056205137
18.258371591560206
18.258570933843874
18.25874683314817
18.25889272057248
18.259002329883156
18.259070431594566
18.259093540458146
18.360578297658932
18.360594543486016
18.360642639147905
18.360720745720275
18.360826064961998
18.360955172793215
18.36110438263721
18.361270068338147
18.361448913550234
18.361638061206868
18.361835180011564
18.362038456743477
18.362246540027634
18.36245845805328
18.362673519206716
18.362891204945004
18.363111061552157
18.363332588051197
18.363555120692112
18.363777713425215
18.363999015772208
18.364217155776018
18.36442963558003
18.364633266976863
18.364824165533857
18.364997838994004
18.365149392512105
18.365273858360823
18.365366630722725
18.36542394848803
18.365443341628776
18.46731350886824
18.46732762493068
18.4673695076994
18.467437815339117
18.4675304804409
18.46764492572856
18.467778307492964
18.467927741514806
18.468090490415804
18.46826408820171
18.46844641047892
18.468635689280365
18.468830487691573
18.469029649427483
18.46923222882409
18.469437409355223
18.469644417955426
18.469852434539675
18.47006049949739
18.470267421005993
18.47047168545153
18.47067137899682
18.470864126312634
18.471047067724264
18.47121688425472
18.471369892211516
18.471502215611604
18.471610034273592
18.47168988939533
18.471739007058027
18.471755587599105
18.57394290409459
18.57395537481007
18.573992439554285
18.574053091386645
18.574135762195326
18.57423846551049
18.57435896251696
18.57449492120804
18.574644056033605
18.574804227479493
18.574973506706478
18.575150199623838
18.575332839389432
18.575520157486437
18.575711036011764
18.57590444774114
18.576099390987576
18.576294819591226
18.576489571917
18.57668230182669
18.57687141549632
18.577055021442103
18.577230897817827
18.577396493221325
18.577548964409512
18.577685264169176
18.577802280612193
18.577897022453598
18.57796683561031
18.578009623940062
18.5780240414654
18.680469420697367
18.68048060548447
18.68051389305596
18.680568506509957
18.680643224566527
18.680736478119435
18.680846465411364
18.680971265144787
18.68110894052873
18.68125761724757
18.68141553938334
18.681581095861425
18.681752822874767
18.681929389208754
18.682109565070412
18.682292179545605
18.682476073039197
18.682660045276233
18.682842803026546
18.683022910803537
18.68319874826884
18.683368480641
18.68353004438713
18.68368116066533
18.683819376142594
18.68394213957962
18.68404691225451
18.684131306299438
18.684193239881147
18.684231090500482
18.68424382556157
18.783396585481125
18.783406742835655
18.7834370042864
18.78348675398754
18.783555015760637
18.783640519620064
18.783741783019092
18.783857192038344
18.783985079236626
18.78412378411524
18.784271700054568
18.784427299856343
18.784589143389542
18.78475587224309
18.78492619063542
18.785098836512187
18.785272548406745
18.785446028506335
18.785617905904424
18.785786703104584
18.785950809025493
18.786108463694678
18.786257755488478
18.78639664067735
18.786522982700628
18.786634616821324
18.786729436984437
18.786805499538072
18.786861135745365
18.786895060076695
18.78690646073951
18.879207003485046
18.87921631661036
18.879244085315786
18.879289808728345
18.87935268706126
18.87943166825719
18.879525506240046
18.879632819814958
18.879752151357792
18.879882013592265
18.880020928458052
18.88016745040705
18.880320176570464
18.880477747456908
18.88063883658191
18.880802132030308
18.88096631476541
18.881130033829606
18.881291882006966
18.881450374605247
18.881603934012208
18.881750884211414
18.881889455069157
18.882017804241435
18.882134052936728
18.882236339661947
18.88232288847704
18.882392087309665
18.882442570570444
18.882473296918818
18.882483613241007
18.967878243194168
18.96788685333563
18.967912541947534
18.967954891512917
18.9680132310323
18.96808666927953
18.96817413726626
18.968274431479067
18.968386258593778
18.968508271778898
18.968639102800726
18.968777382729723
18.968921753138286
18.969070870687474
18.96922340299995
18.969378018116984
18.969533371676008
18.969688091612632
18.96984076346979
18.969989918495198
18.97013402659634
18.970271497499148
18.970400689191884
18.970519930163483
18.970627551101362
18.97072192933991
18.9708015427149
18.97086502926132
18.97091124871171
18.970939339265968
18.970948763645225
19.049397286794125
19.049405305279464
19.049429240082983
19.049468734996267
19.049523214336823
19.04959190705995
19.049673878259384
19.049768061329203
19.049873292491498
19.04998833919164
19.050111926750137
19.050242756605183
19.05037951775327
19.05052089381494
19.050665563345284
19.050812195163182
19.050959442260933
19.051105933778175
19.051250267642054
19.051391005592993
19.05152667214812
19.05165576017429
19.05177674166493
19.051888089284716
19.05198830413786
19.052075952593526
19.052149709119195
19.052208402326016
19.05225106143241
19.052276958410072
19.05228564174704
19.123759676077626
19.12376719273361
19.123789637777023
19.123826700695744
19.123877877255477
19.123942487289398
19.12401969850896
19.12410855079084
19.124207983273877
19.124316856833875
19.124433976441416
19.12455810725419
19.12468798591108
19.124822329156615
19.124959837281153
19.125099193762697
19.125239064198333
19.12537809373734
19.12551490518613
19.125648099097106
19.12577625696289
19.12589794966167
19.126011749435555
19.126116250290455
19.126210092264976
19.126291992148715
19.126360777934806
19.126415424832338
19.126455090944958
19.12647914911696
19.1264872121525
19.190968417448953
19.190975506579495
19.190996680880616
19.191031664310838
19.191080006812953
19.1911410976887
19.191214183970327
19.19129838908072
19.191392734503125
19.19149615784834
19.19160753188153
19.191725678825648
19.191849381337512
19.191977392091452
19.192108439405906
19.192241230014165
19.192374451682426
19.192506774671568
19.19263685384574
19.19276333239996
19.1928848479847
19.193000042968848
19.193107576932835
19.193206145789404
19.193294503074412
19.19337148584382
19.193436042775602
19.193487262790704
19.193524402941957
19.193546912935382
19.19355445434001
19.25103308361472
19.251039808299886
19.251059898261445
19.2510931037242
19.251139016112393
19.251197078315332
19.25126659918586
19.25134676816426
19.25143667297921
19.25153531444627
19.251641622937374
19.25175447123758
19.251872685149223
19.251995053643977
19.252120335999997
19.252247266814226
19.25237456128602
19.25250091960448
19.25262503194225
19.252745584755452
19.252861268900492
19.252970791002667
19.25307288606141
19.253166335323943
19.253249985113023
19.25332276895471
19.253383730879737
19.253432048585292
19.253467055666167
19.253488260884353
19.253495363111462
19.303967604961947
19.303974020186146
19.30399318865508
19.304024880753314
19.30406871988308
19.3041241905285
19.30419064998206
19.304267340066623
19.304353401932193
19.304447888439448
19.304549778680123
19.304657989687183
19.30477138667201
19.304888793492985
19.30500900082129
19.305130772737773
19.305252853914197
19.30537397609179
19.30549286512048
19.305608249045633
19.30571886755056
19.305823483958548
19.305920897727088
19.306009961189034
19.306089596383334
19.306158814259597
19.306216734358348
19.306262603935988
19.306295816069714
19.306315925139735
19.30632265871864
19.34978971365034
19.349795868585286
19.349814261479533
19.34984467823447
19.349886766963692
19.349940044493778
19.350003906102863
19.35007763515576
19.350160415778532
19.3502513434655
19.350349438125534
19.350453654896953
19.35056289405194
19.35067601162211
19.350791828252238
19.35090913690074
19.35102671134988
19.35114331415482
19.35125770510805
19.35136865054393
19.351474933640663
19.351575366751046
19.35166880367585
19.35175415542282
19.351830405445362
19.3518966265985
19.35195199809838
19.35199582166465
19.35202753661228
19.352046732594534
19.352053159299047
19.388518416759513
19.388524356444567
19.38854210764024
19.388571468144324
19.38861210508294
19.38866356030248
19.388725258685778
19.388796516292306
19.388876551489812
19.3889644942644
19.389059398162946
19.389160250420282
19.38926598157742
19.3893754761671
19.389487582017455
19.389601118707912
19.389714886992902
19.389827677766366
19.38993828150042
19.390045498362053
19.390148149054987
19.390245087290303
19.390335211801002
19.390417481280483
19.390490928374533
19.39055467492748
19.390607946912866
19.39065008838386
19.39068057437213
19.390699021653045
19.390705196867753
19.420173201229904
19.420178967802496
19.420196202717236
19.420224712760653
19.42026417946761
19.420314163734243
19.420374113126446
19.420443368961017
19.420521176329647
19.420606692475502
19.420698997923232
19.420797106088827
19.42089997266354
19.421006506304554
19.42111557822473
19.421226031154717
19.421336689380386
19.421446368393102
19.42155388497919
19.421658067864445
19.42175776888198
19.421851875474623
19.421939322457227
19.422019106295902
19.42209029814725
19.42215205782863
19.422203647259295
19.422244442820986
19.422273946678843
19.42229179613337
19.422297770623107
19.444772201347824
19.444777834948226
19.444794673178745
19.444822529398657
19.4448610957047
19.444909947009513
19.444968547654064
19.44503625775756
19.445112342467855
19.445195979685195
19.44528627061288
19.445382248992036
19.445482890303865
19.44558712243974
19.445693835466475
19.445801890916716
19.445910132226096
19.44601739483206
19.446122516684166
19.446224349220206
19.446321768721496
19.446413688793392
19.446499071910814
19.44657694319338
19.44664640274497
19.446706638703493
19.446756939622077
19.446796705708856
19.446825459042998
19.44684285194238
19.44684867318977
19.462330825768003
19.462336365204923
19.462352922467936
19.462380315404424
19.46241824333652
19.462466290793106
19.46252393366807
19.462590545094027
19.462665404183674
19.46274770332427
19.462836558340822
19.46293101747706
19.463030070468555
19.463132659185888
19.463237687501596
19.463344030782004
19.463450546570332
19.463556084962647
19.463659499375744
19.463759657719912
19.463855453855217
19.46394582003358
19.464029738279407
19.464106253810417
19.464174486898877
19.46423364530051
19.464283035928165
19.464322075349116
19.464350299272482
19.464367370270725
19.464373083497414
19.472861039216898
19.472866522460265
19.47288291202934
19.472910028386476
19.47294757506883
19.472995142225784
19.47305221252106
19.473118166737873
19.473192292231822
19.47327378998142
19.4733617845293
19.47345533281612
19.473553433176644
19.47365503596212
19.4737590534591
19.473864369489505
19.47396985022599
19.47407435471768
19.474176745795774
19.4742759013492
19.474370725828773
19.474460162657696
19.474543205509672
19.474618911519507
19.4746864128657
19.474744928841133
19.474793777121096
19.474832383837157
19.474860292650504
19.474877172107
19.474882821067492
19.476370252499642
19.476375717060492
19.476392050873283
19.476419075259454
19.476456495141868
19.476503902519394
19.476560782286267
19.47662651775065
19.476700398993803
19.476781629841827
19.476869337734403
19.476962582510513
19.47706036537897
19.477161639533158
19.477265320085543
19.477370293701902
19.47747542945816
19.477579589413423
19.477681639558813
19.47778046112481
19.47787496209949
19.47796408962695
19.478046841250897
19.47812227805541
19.47818953615606
19.478247838653555
19.478296506769688
19.478334969783443
19.478362773970172
19.478379589837893
19.47838521746462
