# vtk DataFile Version 2.0
Unstructured Grid Example
ASCII
DATASET UNSTRUCTURED_GRID

POINTS 961 float
0.400000004 0.01999999956 0
0.3866666556 0.01999999956 0
0.3733333348 0.01999999956 0
0.3600000144 0.01999999956 0
0.346666664 0.01999999956 0
0.3333333432 0.01999999956 0
0.3199999928 0.01999999956 0
0.3066666724 0.01999999956 0
0.293333322 0.01999999956 0
0.2800000012 0.01999999956 0
0.2666666804 0.01999999956 0
0.25333333 0.01999999956 0
0.2399999948 0.01999999956 0
0.226666674 0.01999999956 0
0.2133333384 0.01999999956 0
0.2000000028 0.01999999956 0
0.1866666676 0.01999999956 0
0.173333332 0.01999999956 0
0.1599999964 0.01999999956 0
0.1466666608 0.01999999956 0
0.1333333404 0.01999999956 0
0.1199999972 0.01999999956 0
0.1066666692 0.01999999956 0
0.0933333336 0.01999999956 0
0.0799999984 0.01999999956 0
0.06666667 0.01999999956 0
0.0533333348 0.01999999956 0
0.03999999912 0.01999999956 0
0.02666666732 0.01999999956 0
0.01333333364 0.01999999956 0
0.0 0.01999999956 0
0.400000004 0.00666666684 0
0.3866666556 0.00666666684 0
0.3733333348 0.00666666684 0
0.3600000144 0.00666666684 0
0.346666664 0.00666666684 0
0.3333333432 0.00666666684 0
0.3199999928 0.00666666684 0
0.3066666724 0.00666666684 0
0.293333322 0.00666666684 0
0.2800000012 0.00666666684 0
0.2666666804 0.00666666684 0
0.25333333 0.00666666684 0
0.2399999948 0.00666666684 0
0.226666674 0.00666666684 0
0.2133333384 0.00666666684 0
0.2000000028 0.00666666684 0
0.1866666676 0.00666666684 0
0.173333332 0.00666666684 0
0.1599999964 0.00666666684 0
0.1466666608 0.00666666684 0
0.1333333404 0.00666666684 0
0.1199999972 0.00666666684 0
0.1066666692 0.00666666684 0
0.0933333336 0.00666666684 0
0.0799999984 0.00666666684 0
0.06666667 0.00666666684 0
0.0533333348 0.00666666684 0
0.03999999912 0.00666666684 0
0.02666666732 0.00666666684 0
0.01333333364 0.00666666684 0
0.0 0.00666666684 0
0.400000004 -0.00666666684 0
0.3866666556 -0.00666666684 0
0.3733333348 -0.00666666684 0
0.3600000144 -0.00666666684 0
0.346666664 -0.00666666684 0
0.3333333432 -0.00666666684 0
0.3199999928 -0.00666666684 0
0.3066666724 -0.00666666684 0
0.293333322 -0.00666666684 0
0.2800000012 -0.00666666684 0
0.2666666804 -0.00666666684 0
0.25333333 -0.00666666684 0
0.2399999948 -0.00666666684 0
0.226666674 -0.00666666684 0
0.2133333384 -0.00666666684 0
0.2000000028 -0.00666666684 0
0.1866666676 -0.00666666684 0
0.173333332 -0.00666666684 0
0.1599999964 -0.00666666684 0
0.1466666608 -0.00666666684 0
0.1333333404 -0.00666666684 0
0.1199999972 -0.00666666684 0
0.1066666692 -0.00666666684 0
0.0933333336 -0.00666666684 0
0.0799999984 -0.00666666684 0
0.06666667 -0.00666666684 0
0.0533333348 -0.00666666684 0
0.03999999912 -0.00666666684 0
0.02666666732 -0.00666666684 0
0.01333333364 -0.00666666684 0
0.0 -0.00666666684 0
0.400000004 -0.01999999956 0
0.3866666556 -0.01999999956 0
0.3733333348 -0.01999999956 0
0.3600000144 -0.01999999956 0
0.346666664 -0.01999999956 0
0.3333333432 -0.01999999956 0
0.3199999928 -0.01999999956 0
0.3066666724 -0.01999999956 0
0.293333322 -0.01999999956 0
0.2800000012 -0.01999999956 0
0.2666666804 -0.01999999956 0
0.25333333 -0.01999999956 0
0.2399999948 -0.01999999956 0
0.226666674 -0.01999999956 0
0.2133333384 -0.01999999956 0
0.2000000028 -0.01999999956 0
0.1866666676 -0.01999999956 0
0.173333332 -0.01999999956 0
0.1599999964 -0.01999999956 0
0.1466666608 -0.01999999956 0
0.1333333404 -0.01999999956 0
0.1199999972 -0.01999999956 0
0.1066666692 -0.01999999956 0
0.0933333336 -0.01999999956 0
0.0799999984 -0.01999999956 0
0.06666667 -0.01999999956 0
0.0533333348 -0.01999999956 0
0.03999999912 -0.01999999956 0
0.02666666732 -0.01999999956 0
0.01333333364 -0.01999999956 0
0.0 -0.01999999956 0
0.400000004 -0.03333333508 0
0.3866666556 -0.03333333508 0
0.3733333348 -0.03333333508 0
0.3600000144 -0.03333333508 0
0.346666664 -0.03333333508 0
0.3333333432 -0.03333333508 0
0.3199999928 -0.03333333508 0
0.3066666724 -0.03333333508 0
0.293333322 -0.03333333508 0
0.2800000012 -0.03333333508 0
0.2666666804 -0.03333333508 0
0.25333333 -0.03333333508 0
0.2399999948 -0.03333333508 0
0.226666674 -0.03333333508 0
0.2133333384 -0.03333333508 0
0.2000000028 -0.03333333508 0
0.1866666676 -0.03333333508 0
0.173333332 -0.03333333508 0
0.1599999964 -0.03333333508 0
0.1466666608 -0.03333333508 0
0.1333333404 -0.03333333508 0
0.1199999972 -0.03333333508 0
0.1066666692 -0.03333333508 0
0.0933333336 -0.03333333508 0
0.0799999984 -0.03333333508 0
0.06666667 -0.03333333508 0
0.0533333348 -0.03333333508 0
0.03999999912 -0.03333333508 0
0.02666666732 -0.03333333508 0
0.01333333364 -0.03333333508 0
0.0 -0.03333333508 0
0.400000004 -0.0466666668 0
0.3866666556 -0.0466666668 0
0.3733333348 -0.0466666668 0
0.3600000144 -0.0466666668 0
0.346666664 -0.0466666668 0
0.3333333432 -0.0466666668 0
0.3199999928 -0.0466666668 0
0.3066666724 -0.0466666668 0
0.293333322 -0.0466666668 0
0.2800000012 -0.0466666668 0
0.2666666804 -0.0466666668 0
0.25333333 -0.0466666668 0
0.2399999948 -0.0466666668 0
0.226666674 -0.0466666668 0
0.2133333384 -0.0466666668 0
0.2000000028 -0.0466666668 0
0.1866666676 -0.0466666668 0
0.173333332 -0.0466666668 0
0.1599999964 -0.0466666668 0
0.1466666608 -0.0466666668 0
0.1333333404 -0.0466666668 0
0.1199999972 -0.0466666668 0
0.1066666692 -0.0466666668 0
0.0933333336 -0.0466666668 0
0.0799999984 -0.0466666668 0
0.06666667 -0.0466666668 0
0.0533333348 -0.0466666668 0
0.03999999912 -0.0466666668 0
0.02666666732 -0.0466666668 0
0.01333333364 -0.0466666668 0
0.0 -0.0466666668 0
0.400000004 -0.0599999988 0
0.3866666556 -0.0599999988 0
0.3733333348 -0.0599999988 0
0.3600000144 -0.0599999988 0
0.346666664 -0.0599999988 0
0.3333333432 -0.0599999988 0
0.3199999928 -0.0599999988 0
0.3066666724 -0.0599999988 0
0.293333322 -0.0599999988 0
0.2800000012 -0.0599999988 0
0.2666666804 -0.0599999988 0
0.25333333 -0.0599999988 0
0.2399999948 -0.0599999988 0
0.226666674 -0.0599999988 0
0.2133333384 -0.0599999988 0
0.2000000028 -0.0599999988 0
0.1866666676 -0.0599999988 0
0.173333332 -0.0599999988 0
0.1599999964 -0.0599999988 0
0.1466666608 -0.0599999988 0
0.1333333404 -0.0599999988 0
0.1199999972 -0.0599999988 0
0.1066666692 -0.0599999988 0
0.0933333336 -0.0599999988 0
0.0799999984 -0.0599999988 0
0.06666667 -0.0599999988 0
0.0533333348 -0.0599999988 0
0.03999999912 -0.0599999988 0
0.02666666732 -0.0599999988 0
0.01333333364 -0.0599999988 0
0.0 -0.0599999988 0
0.400000004 -0.0733333304 0
0.3866666556 -0.0733333304 0
0.3733333348 -0.0733333304 0
0.3600000144 -0.0733333304 0
0.346666664 -0.0733333304 0
0.3333333432 -0.0733333304 0
0.3199999928 -0.0733333304 0
0.3066666724 -0.0733333304 0
0.293333322 -0.0733333304 0
0.2800000012 -0.0733333304 0
0.2666666804 -0.0733333304 0
0.25333333 -0.0733333304 0
0.2399999948 -0.0733333304 0
0.226666674 -0.0733333304 0
0.2133333384 -0.0733333304 0
0.2000000028 -0.0733333304 0
0.1866666676 -0.0733333304 0
0.173333332 -0.0733333304 0
0.1599999964 -0.0733333304 0
0.1466666608 -0.0733333304 0
0.1333333404 -0.0733333304 0
0.1199999972 -0.0733333304 0
0.1066666692 -0.0733333304 0
0.0933333336 -0.0733333304 0
0.0799999984 -0.0733333304 0
0.06666667 -0.0733333304 0
0.0533333348 -0.0733333304 0
0.03999999912 -0.0733333304 0
0.02666666732 -0.0733333304 0
0.01333333364 -0.0733333304 0
0.0 -0.0733333304 0
0.400000004 -0.086666666 0
0.3866666556 -0.086666666 0
0.3733333348 -0.086666666 0
0.3600000144 -0.086666666 0
0.346666664 -0.086666666 0
0.3333333432 -0.086666666 0
0.3199999928 -0.086666666 0
0.3066666724 -0.086666666 0
0.293333322 -0.086666666 0
0.2800000012 -0.086666666 0
0.2666666804 -0.086666666 0
0.25333333 -0.086666666 0
0.2399999948 -0.086666666 0
0.226666674 -0.086666666 0
0.2133333384 -0.086666666 0
0.2000000028 -0.086666666 0
0.1866666676 -0.086666666 0
0.173333332 -0.086666666 0
0.1599999964 -0.086666666 0
0.1466666608 -0.086666666 0
0.1333333404 -0.086666666 0
0.1199999972 -0.086666666 0
0.1066666692 -0.086666666 0
0.0933333336 -0.086666666 0
0.0799999984 -0.086666666 0
0.06666667 -0.086666666 0
0.0533333348 -0.086666666 0
0.03999999912 -0.086666666 0
0.02666666732 -0.086666666 0
0.01333333364 -0.086666666 0
0.0 -0.086666666 0
0.400000004 -0.1000000016 0
0.3866666556 -0.1000000016 0
0.3733333348 -0.1000000016 0
0.3600000144 -0.1000000016 0
0.346666664 -0.1000000016 0
0.3333333432 -0.1000000016 0
0.3199999928 -0.1000000016 0
0.3066666724 -0.1000000016 0
0.293333322 -0.1000000016 0
0.2800000012 -0.1000000016 0
0.2666666804 -0.1000000016 0
0.25333333 -0.1000000016 0
0.2399999948 -0.1000000016 0
0.226666674 -0.1000000016 0
0.2133333384 -0.1000000016 0
0.2000000028 -0.1000000016 0
0.1866666676 -0.1000000016 0
0.173333332 -0.1000000016 0
0.1599999964 -0.1000000016 0
0.1466666608 -0.1000000016 0
0.1333333404 -0.1000000016 0
0.1199999972 -0.1000000016 0
0.1066666692 -0.1000000016 0
0.0933333336 -0.1000000016 0
0.0799999984 -0.1000000016 0
0.06666667 -0.1000000016 0
0.0533333348 -0.1000000016 0
0.03999999912 -0.1000000016 0
0.02666666732 -0.1000000016 0
0.01333333364 -0.1000000016 0
0.0 -0.1000000016 0
0.400000004 -0.1133333372 0
0.3866666556 -0.1133333372 0
0.3733333348 -0.1133333372 0
0.3600000144 -0.1133333372 0
0.346666664 -0.1133333372 0
0.3333333432 -0.1133333372 0
0.3199999928 -0.1133333372 0
0.3066666724 -0.1133333372 0
0.293333322 -0.1133333372 0
0.2800000012 -0.1133333372 0
0.2666666804 -0.1133333372 0
0.25333333 -0.1133333372 0
0.2399999948 -0.1133333372 0
0.226666674 -0.1133333372 0
0.2133333384 -0.1133333372 0
0.2000000028 -0.1133333372 0
0.1866666676 -0.1133333372 0
0.173333332 -0.1133333372 0
0.1599999964 -0.1133333372 0
0.1466666608 -0.1133333372 0
0.1333333404 -0.1133333372 0
0.1199999972 -0.1133333372 0
0.1066666692 -0.1133333372 0
0.0933333336 -0.1133333372 0
0.0799999984 -0.1133333372 0
0.06666667 -0.1133333372 0
0.0533333348 -0.1133333372 0
0.03999999912 -0.1133333372 0
0.02666666732 -0.1133333372 0
0.01333333364 -0.1133333372 0
0.0 -0.1133333372 0
0.400000004 -0.1266666652 0
0.3866666556 -0.1266666652 0
0.3733333348 -0.1266666652 0
[...]
POINT_DATA 961
SCALARS Temp float 1
LOOKUP_TABLE default
0.683745500650434
0.7110544999486055
0.7306524024891385
0.7449019906407329
0.7553427711558738
0.7630304182539334
0.7687165062755186
0.7729419896874254
0.7761005971842492
0.7784808185557583
0.7802965443375817
0.7817083114238863
0.7828388039289279
0.7837849169532184
0.7846267578261769
0.7854347866353316
0.7862763549296415
0.7872217164770023
0.7883503418966326
0.7897581427195672
0.7915662692279044
0.7939326932507992
0.7970669727805163
0.8012512299825741
0.8068683146044042
0.8144417728775304
0.8246927915308497
0.8386235057046837
0.8576438935514412
0.8838002417704639
0.9203384760568256
0.721680453345265
0.748458854504769
0.7678462598136954
0.7820178458713735
0.792422771306295
0.8000956972810049
0.8057773471034504
0.8100035108818445
0.8131652187732095
0.8155495564636902
0.8173696936180566
0.818785828051719
0.8199205239495514
0.8208706739001037
0.8217164479779411
0.8225284074279222
0.8233740189654308
0.8243236509169264
0.8254568705823758
0.8268696429426691
0.8286830883292404
0.8310549883436593
0.8341944342365801
0.8383825706876646
0.844000354755423
0.8515677270471588
0.861798945904562
0.8756818249466987
0.89459652438777
0.9204861916435063
0.956165322014993
2.497759643576839
2.5017379685381034
2.512825665593898
2.523051793728146
2.531507899174187
2.5382357265904005
2.543503328054073
2.547600077243912
2.5507826516364576
2.5532640856682103
2.5552167339340754
2.556779175237164
2.5580636950484426
2.5591632837578455
2.5601578647170804
2.561119863034313
2.5621193846882986
2.563229295862217
2.5645304769520174
2.566117577752145
2.568105595189526
2.5706374914020578
2.573892983580152
2.578098160078643
2.5835344214085953
2.5905421618975937
2.599506010310486
2.6107823659808562
2.624426140902516
2.6392158709691587
2.644525543689161
4.251704471433261
4.253875471255718
4.259203909357083
4.26586192218955
4.27217460058265
4.277647395286931
4.282199949837569
4.285908870036761
4.288900849326061
4.291309410828847
4.293258414771384
4.294857130429126
4.296200445075875
4.29737128321953
4.2984438847174165
4.299487399651481
4.300569610358945
4.301760725841191
4.30313727901464
4.304786137170975
4.306808540230754
4.309323885436172
4.312472429778914
4.316415223104063
4.321327249983423
4.327375107105631
4.334659147159012
4.3430704990971
4.351947049796193
4.359053053636464
4.3619482790569455
6.000469196977596
6.001624522401131
6.004746863793637
6.0089743528613155
6.013476175494113
6.017705956326726
6.021438815851523
6.024621659035133
6.027285095595361
6.02949571334607
6.031332003155895
6.032872906829964
6.034193141399713
6.035362123441895
6.036444756052426
6.037503191921881
6.038599099705587
6.039796141884755
6.041162475567351
6.042773055438687
6.044711381413178
6.047070056111452
6.0499488908724315
6.053448355871386
6.05765403096292
6.0626041895643725
6.068225987519221
6.0742175934726035
6.079848583772474
6.0840092525099125
6.085549063662609
7.746108289553053
7.746811903482883
7.748758767015586
7.751546074596317
7.754707630488724
7.757871548384829
7.760810740575238
7.7634227452007805
7.765683888635726
7.767614690445592
7.769257949131151
7.7706660094982665
7.771894005114637
7.772996782621386
7.77402799400401
7.775040450436965
7.776087168181997
7.77722269532175
7.778504402831569
7.779993387612013
7.781754498441924
7.783854740787069
7.786358794284885
7.789319735207865
7.792761813757977
7.796650964019084
7.800848537364988
7.805049946317915
7.8087577639931425
7.811349049614501
7.812285797397138
9.489643340480967
9.490091392445496
9.491354540300245
9.493221744611246
9.495429192958198
9.497735933381069
9.499967223296652
9.502020639846736
9.503851956712701
9.505456139191608
9.506851899001187
9.508070998942948
9.509151613873955
9.510134636235247
9.511061926006382
9.511975788409462
9.512919158023955
9.513936067049915
9.515072045398655
9.51637406732047
9.517889552452278
9.519663752143261
9.521734526873193
9.524123283842924
9.526820517795187
9.529765003405172
9.532818360592447
9.535746056201626
9.538225563013592
9.539904132222402
9.540499732488048
11.231524721892345
11.231813226028397
11.232635572497275
11.233876586526733
11.235384144242708
11.237007918839852
11.23862662856638
11.24015867160583
11.241559879905349
11.24281518664294
11.243929509888503
11.244920254130866
11.245812013973728
11.246633235441772
11.247414332009567
11.248186792662539
11.248982886517641
11.249835606763067
11.25077853876126
11.251845311226761
11.253068221986513
11.254475539124774
11.25608683643104
11.25790578018116
11.259909984142327
11.262038698219422
11.264181633799708
11.26617585279166
11.267819953094518
11.268910369503523
11.269293077647859
12.971976143795477
12.972154106820804
12.97266507890776
12.973446812448492
12.974414252702973
12.975479006633599
12.976564926053015
12.977616287262267
12.978599091664208
12.979497998066995
12.980311682125794
12.981048343091576
12.981722163252737
12.982350860086047
12.982954153223066
12.983552901596603
12.984168660144146
12.9848234041959
12.985539190189803
12.986337503937865
12.987238014051812
12.988256419413476
12.989401050141927
12.990668051679227
12.992035298079301
12.993456102138502
12.994855085304158
12.99612983590989
12.997161817438208
12.997837120739979
12.998072441221026
14.711106636153344
14.711199569305181
14.711467874311326
14.711882739254857
14.712403942310806
14.712988336235412
14.713597147605721
14.71420040052462
14.714778322098283
14.715320525714686
14.715824131675829
14.716291675818127
14.716729309038232
14.717145458803408
14.717549921685588
14.717953291868476
14.718366607692273
14.71880108398477
14.71926780607452
14.719777252327873
14.720338500616016
14.720957974494494
14.721637594135547
14.722372332856072
14.723147382087367
14.723935593586475
14.724696372868289
14.725377513456008
14.725921096846243
14.7262732096344
14.726395263721033
16.448968483341396
16.448987916368345
16.449045014709593
16.449136397210804
16.44925709393715
16.449401329747605
16.449563297969355
16.44973775941685
16.449920408024468
16.45010800430979
16.45029834746682
16.450490145196206
16.450682841558706
16.450876441410852
16.451071344069668
16.451268191649387
16.451467730990995
16.45167067802393
16.451877575596964
16.452088634553196
16.452303549777458
16.452521290297746
16.45273986659451
16.452956107411506
16.453165486978907
16.453362084233216
16.453538764362012
16.453687661224908
16.453800979391445
16.453872023069444
16.45389624251306
16.54593087131891
16.54594687725271
16.545994081987036
16.546070175213686
16.54617169956025
16.546294529547488
16.546434370915513
16.546587179255894
16.54674945299717
16.546918381455818
16.547091880006732
16.547268538929675
16.547447524035118
16.547628457960776
16.54781129386971
16.547996189860967
16.548183387666477
16.548373090046095
16.548565333450092
16.54875985158544
16.54895592768818
16.549152240091587
16.549346708220632
16.549536368579744
16.54971730952393
16.549884716895484
16.55003307601511
16.550156558957895
16.550249586221685
16.55030749057799
16.55032715717022
16.642793199832163
16.64280663897734
16.64284638869136
16.642910824041955
16.642997477901808
16.643103342481403
16.643225197408704
16.64335990125891
16.643504615770556
16.643656939798287
16.643814967324477
16.64397727841459
16.644142886052936
16.64431115889143
16.64448172859419
16.644654390161783
16.644829000926133
16.645005376134193
16.645183181383253
16.64536182141223
16.645540326592666
16.645717243944166
16.645890539999197
16.646057539575924
16.646214918128234
16.646358779499764
16.646484839784943
16.64658872426215
16.646666359748124
16.64671441078046
16.64673068314361
16.73956033393244
16.739571802199556
16.73960579954378
16.73966115272314
16.73973605893307
16.739828280609927
16.739935364832355
16.740054846938968
16.740184418487008
16.74032203858446
16.740465995217534
16.740614916555455
16.740767745681225
16.740923692125293
16.741082165729495
16.74124270012072
16.74140487205437
16.741568216476743
16.74173213970173
16.741895832414777
16.74205818554981
16.742217716186126
16.742372509416416
16.742520194707147
16.742657966180097
16.74278266589478
16.74289093791908
16.74297945127014
16.7430451751593
16.743085670824488
16.743099352792566
16.836235931576905
16.836245853861275
16.836275320765658
16.836323464210714
16.836388936644028
16.836470039772994
16.836564873772737
16.836671480368715
16.836787967508144
16.83691259802218
16.837043845816837
16.837180415480503
16.837321233126023
16.83746541729792
16.83761223293223
16.83776103424518
16.837911202556704
16.83806207977309
16.838212900914744
16.83836272842023
16.838510391803997
16.838654439196407
16.83879310497014
16.838924307401093
16.839045680318716
16.839154650193684
16.839248560096618
16.839324835648664
16.839381179582134
16.839415770414103
16.83942743565391
16.932822766100905
16.93283145346971
16.932857289395486
16.932899616404022
16.932957404795417
16.933029339430917
16.933113922823352
16.933209576453425
16.93331473310092
16.93342790586025
16.933547736327743
16.933673016261746
16.933802687311648
16.93393582470151
16.93407160604537
16.934209269859938
16.93434806916256
16.93448722111728
16.934625856367482
16.934762971045707
16.93489738491624
16.935027711206835
16.93515234074545
16.935269450895934
16.93537703987365
16.935472993462188
16.935555182683718
16.935621587108628
16.935670433672918
16.93570033417453
16.935710402565636
17.026227795174748
17.026235479273364
17.026258357040142
17.02629591917403
17.02634736177152
17.026411645877914
17.02648756977969
17.02657384134828
17.026669146550763
17.02677220253755
17.026881797578802
17.026996811806274
17.027116221565038
17.02723909141132
17.027364553737684
17.027491779506434
17.027619944752885
17.027748193720385
17.027875602093786
17.02800114315647
17.028123659893236
17.02824184758259
17.02835424823476
17.02845926487533
17.028555194309767
17.028640282877678
17.02871280263483
17.02877114318183
17.028813911719386
17.02884002968528
17.028848813711495
17.11333549018758
17.113342347003503
17.113362779756848
17.11339638524526
17.11344252257733
17.113500354685527
17.113568899738073
17.113647083248097
17.11373378915135
17.113827900435698
17.113928331673904
17.114034047645085
17.114144069877547
17.114257474005253
17.11437337717618
17.114490918147002
17.114609234019962
17.114727434232297
17.114844574887556
17.114959635886528
17.115071503344666
17.115178960925167
17.11528069052159
17.115375288524504
17.11546129527238
17.11553724079055
17.115601704000344
17.11565338142842
17.115691160087323
17.115714186386352
17.11572192298269
17.19411528671783
17.19412145413303
17.194139845370785
17.194170134366903
17.19421179959088
17.194264153410167
17.194326379160515
17.194397569031555
17.194476762423623
17.19456297704093
17.19465523521948
17.19475258013079
17.19485408318039
17.194958844787628
17.19506598735149
17.19517464239629
17.195283935225344
17.19539296740016
17.19550079968764
17.195606437503034
17.195708820808573
17.19580682133099
17.19589924689202
17.195984857843076
17.19606239272253
17.19613060546071
17.19618831144384
17.196234439272672
17.196268084437847
17.19628855915116
17.196295432916394
17.268538782102038
17.268544370521507
17.268561044383443
17.268588534485726
17.268626407836663
17.268674088719802
17.26873088580108
17.268796019954817
17.268868653344065
17.26894791331187
17.269032913705903
17.269122768792435
17.269216600811237
17.269313542919747
17.26941273609795
17.269513321530738
17.26961443126334
17.26971517717094
17.26981464044523
17.269911863208982
17.270005843752195
17.270095537638888
17.27017986405344
17.27025772149867
17.270328009801972
17.270389660323715
17.270441671956092
17.270483150444253
17.270513348381186
17.270531701743597
17.270537859294247
17.336579692955382
17.336584792680085
17.336600015054035
17.336625133312936
17.336659780916012
17.336703466872027
17.33675559585673
17.336815488885193
17.33688240562381
17.33695556288914
17.33703415203367
17.33711735086675
17.33720433102684
17.337294262273314
17.33738631216223
17.337479642269077
17.33757340331623
17.337666729010007
17.337758730396153
17.33784849197686
17.337935070695263
17.338017499556184
17.33809479498319
17.338165971393078
17.338230059959525
17.338286133217043
17.338333333403423
17.338370902637607
17.338398213096678
17.338414794184008
17.338420354165024
17.398213839893778
17.39821852632301
17.398232519794647
17.39825562555962
17.398287527463122
17.39832779926298
17.398375919802973
17.398431288573942
17.39849324308227
17.398561073334953
17.398634036171458
17.39871136553036
17.39879227949603
17.398875985410392
17.398961681480312
17.399048555783864
17.39913578467799
17.39922253022491
17.399307938111228
17.399391136996297
17.399471240085973
17.39954735033191
17.399618568195034
17.399684004994736
17.3997427989192
17.3997941352066
17.399837268685854
17.399871547217025
17.39989643477575
17.399911531957834
17.399916592151055
17.453419518639627
17.453423855999976
17.45343681060475
17.453458212067137
17.453487782751964
17.453525146272476
17.453569839143793
17.453621322678583
17.453678996741754
17.45374221126037
17.453810278213155
17.45388248056317
17.453958078940545
17.454036317234046
17.45411642553108
17.454197621117295
17.454279109255207
17.454360083216216
17.45443972476685
17.454517205798936
17.454591691659815
17.454662347302875
17.454728345108254
17.45478887705333
17.454843168451024
17.454890494676203
17.454930199322064
17.454961712665064
17.454984569598082
17.4549984253572
17.455003067813383
17.502176820957605
17.502180865025817
17.50219294612394
17.502212912510636
17.502240516154778
17.502275419235406
17.50231720327724
17.50236537841242
17.502419394492815
17.50247865040363
17.502542504270885
17.502610281339855
17.502681280307797
17.5027547791784
17.502830039109245
17.502906306821146
17.5029828170653
17.503058794518775
17.503133456090694
17.503206014137273
17.503275680958836
17.503341675489
17.503403230983555
17.503459606131
17.503510096953377
17.503554050856735
17.503590881482722
17.503620083496035
17.50364124676191
17.503654068628357
17.503658363442376
17.544468568012483
17.544472368130528
17.544483722251588
17.544502492925762
17.544528454898288
17.544561300191965
17.544600645438628
17.54464603924824
17.544696971392668
17.544752880505627
17.544813162945545
17.544877179854137
17.544944263177175
17.54501372164658
17.54508484523573
17.54515690855233
17.545229174489762
17.54530089743442
17.54537132684164
17.54543971153155
17.545505304942402
17.545567372094375
17.54562519705798
17.545678093152855
17.545725413387842
17.54576656245678
17.545801009109702
17.54582829822547
17.54584806224869
17.545860030981917
17.54586403910896
17.58027946127799
17.580283061881776
17.580293821171217
17.58031161259714
17.580336228334293
17.580367383359736
17.580404721494727
17.58044782141969
17.580496204458
17.580549341099967
17.58060665886158
17.58066754871618
17.580731370850838
17.58079746069512
17.58086513377565
17.580933689784104
17.58100241704478
17.581070596629974
17.58113750680569
17.581202428050027
17.581264648782103
17.5813234724389
17.581378224697087
17.581428262915388
17.58147298543476
17.581511842014844
17.58154434435857
17.581570076191788
17.581588702707506
17.581599978561865
17.581603753968405
17.60959679530465
17.609600237102768
17.609610522759773
17.6096275339166
17.609651075880265
17.609680880997267
17.609716613783483
17.60975787598094
17.609804213338546
17.609855121291282
17.609910052082363
17.609968420725572
17.61002961054798
17.610092979220287
17.610157863867276
17.610223585589985
17.610289454483908
17.610354774369668
17.610418847821744
17.610480981658263
17.610540492958176
17.61059671615984
17.610649010048213
17.610696766593296
17.610739419382043
17.610776452894072
17.61080741167274
17.610831908961394
17.610849634715404
17.61086036231607
17.610863953649424
17.632410117061806
17.632413437972946
17.632423362991737
17.632439779715092
17.632462503021628
17.632491277962224
17.632525784260686
17.63256564070998
17.632610411253793
17.632659610076132
17.63271270819995
17.632769139110817
17.6328283041357
17.6328895784546
17.6329523163694
17.633015856122395
17.633079525274862
17.63314264584191
17.633204539699992
17.63326453437431
17.63332196922312
17.633376202513666
17.633426618210414
17.63347263435462
17.63351371086047
17.63354935795529
17.63357914438933
17.633602705055807
17.633619748001532
17.633630060248834
17.633633512170803
17.648711152506166
17.64871438842703
17.648724059848494
17.648740058415
17.648762205521106
17.648790254889256
17.648823896660623
17.648862761361613
17.648906425526327
17.648954416399086
17.649006218184066
17.649061277440726
17.64911900834699
17.64917879868773
17.649240015216485
17.649302008656917
17.649364119304323
17.6494256824114
17.649486033828715
17.649544515969776
17.64960048408631
17.649653313308864
17.649702405285197
17.649747196238753
17.649787164331247
17.649821837540742
17.64985080123064
17.6498737050975
17.649890269522153
17.649900290806592
17.649903645089097
17.65849413286554
17.658497318321192
17.65850683914394
17.658522589328236
17.658544394056115
17.658572012099498
17.658605139680105
17.65864341419389
17.658686419573662
17.658733690772046
17.658784719811543
17.658838961048197
17.658895836366142
17.658954741148534
17.659015049687206
17.659076120282926
17.65913730096737
17.659197935025066
17.659257366758986
17.65931494754914
17.659370042171446
17.65942203581008
17.659470340603313
17.659514403511956
17.659553713430046
17.659587808738898
17.659616284509333
17.659638799066514
17.659655079966512
17.659664928901826
17.659668225356516
17.66175550621354
17.661758674934315
17.661768145813745
17.66178381361688
17.661805504768523
17.661832979698918
17.661865936629084
17.661904015217214
17.661946801837
17.66199383398969
17.662044606289104
17.66209857568219
17.662155166620874
17.662213777026608
17.66227378371461
17.66233454752542
17.662395419084746
17.66245574436854
17.66251487050791
17.66257215187669
17.66262695642323
17.662678672671987
17.66272671623832
17.662770537633875
17.662809629294735
17.662843533029633
17.662871847102828
17.662894232674468
17.66291041965581
17.662920211507444
17.66292348881031
