# vtk DataFile Version 2.0
Unstructured Grid Example
ASCII
DATASET UNSTRUCTURED_GRID

POINTS 961 float
0.400000004 0.01999999956 0
0.3866666556 0.01999999956 0
0.3733333348 0.01999999956 0
0.3600000144 0.01999999956 0
0.346666664 0.01999999956 0
0.3333333432 0.01999999956 0
0.3199999928 0.01999999956 0
0.3066666724 0.01999999956 0
0.293333322 0.01999999956 0
0.2800000012 0.01999999956 0
0.2666666804 0.01999999956 0
0.25333333 0.01999999956 0
0.2399999948 0.01999999956 0
0.226666674 0.01999999956 0
0.2133333384 0.01999999956 0
0.2000000028 0.01999999956 0
0.1866666676 0.01999999956 0
0.173333332 0.01999999956 0
0.1599999964 0.01999999956 0
0.1466666608 0.01999999956 0
0.1333333404 0.01999999956 0
0.1199999972 0.01999999956 0
0.1066666692 0.01999999956 0
0.0933333336 0.01999999956 0
0.0799999984 0.01999999956 0
0.06666667 0.01999999956 0
0.0533333348 0.01999999956 0
0.03999999912 0.01999999956 0
0.02666666732 0.01999999956 0
0.01333333364 0.01999999956 0
0.0 0.01999999956 0
0.400000004 0.00666666684 0
0.3866666556 0.00666666684 0
0.3733333348 0.00666666684 0
0.3600000144 0.00666666684 0
0.346666664 0.00666666684 0
0.3333333432 0.00666666684 0
0.3199999928 0.00666666684 0
0.3066666724 0.00666666684 0
0.293333322 0.00666666684 0
0.2800000012 0.00666666684 0
0.2666666804 0.00666666684 0
0.25333333 0.00666666684 0
0.2399999948 0.00666666684 0
0.226666674 0.00666666684 0
0.2133333384 0.00666666684 0
0.2000000028 0.00666666684 0
0.1866666676 0.00666666684 0
0.173333332 0.00666666684 0
0.1599999964 0.00666666684 0
0.1466666608 0.00666666684 0
0.1333333404 0.00666666684 0
0.1199999972 0.00666666684 0
0.1066666692 0.00666666684 0
0.0933333336 0.00666666684 0
0.0799999984 0.00666666684 0
0.06666667 0.00666666684 0
0.0533333348 0.00666666684 0
0.03999999912 0.00666666684 0
0.02666666732 0.00666666684 0
0.01333333364 0.00666666684 0
0.0 0.00666666684 0
0.400000004 -0.00666666684 0
0.3866666556 -0.00666666684 0
0.3733333348 -0.00666666684 0
0.3600000144 -0.00666666684 0
0.346666664 -0.00666666684 0
0.3333333432 -0.00666666684 0
0.3199999928 -0.00666666684 0
0.3066666724 -0.00666666684 0
0.293333322 -0.00666666684 0
0.2800000012 -0.00666666684 0
0.2666666804 -0.00666666684 0
0.25333333 -0.00666666684 0
0.2399999948 -0.00666666684 0
0.226666674 -0.00666666684 0
0.2133333384 -0.00666666684 0
0.2000000028 -0.00666666684 0
0.1866666676 -0.00666666684 0
0.173333332 -0.00666666684 0
0.1599999964 -0.00666666684 0
0.1466666608 -0.00666666684 0
0.1333333404 -0.00666666684 0
0.1199999972 -0.00666666684 0
0.1066666692 -0.00666666684 0
0.0933333336 -0.00666666684 0
0.0799999984 -0.00666666684 0
0.06666667 -0.00666666684 0
0.0533333348 -0.00666666684 0
0.03999999912 -0.00666666684 0
0.02666666732 -0.00666666684 0
0.01333333364 -0.00666666684 0
0.0 -0.00666666684 0
0.400000004 -0.01999999956 0
0.3866666556 -0.01999999956 0
0.3733333348 -0.01999999956 0
0.3600000144 -0.01999999956 0
0.346666664 -0.01999999956 0
0.3333333432 -0.01999999956 0
0.3199999928 -0.01999999956 0
0.3066666724 -0.01999999956 0
0.293333322 -0.01999999956 0
0.2800000012 -0.01999999956 0
0.2666666804 -0.01999999956 0
0.25333333 -0.01999999956 0
0.2399999948 -0.01999999956 0
0.226666674 -0.01999999956 0
0.2133333384 -0.01999999956 0
0.2000000028 -0.01999999956 0
0.1866666676 -0.01999999956 0
0.173333332 -0.01999999956 0
0.1599999964 -0.01999999956 0
0.1466666608 -0.01999999956 0
0.1333333404 -0.01999999956 0
0.1199999972 -0.01999999956 0
0.1066666692 -0.01999999956 0
0.0933333336 -0.01999999956 0
0.0799999984 -0.01999999956 0
0.06666667 -0.01999999956 0
0.0533333348 -0.01999999956 0
0.03999999912 -0.01999999956 0
0.02666666732 -0.01999999956 0
0.01333333364 -0.01999999956 0
0.0 -0.01999999956 0
0.400000004 -0.03333333508 0
0.3866666556 -0.03333333508 0
0.3733333348 -0.03333333508 0
0.3600000144 -0.03333333508 0
0.346666664 -0.03333333508 0
0.3333333432 -0.03333333508 0
0.3199999928 -0.03333333508 0
0.3066666724 -0.03333333508 0
0.293333322 -0.03333333508 0
0.2800000012 -0.03333333508 0
0.2666666804 -0.03333333508 0
0.25333333 -0.03333333508 0
0.2399999948 -0.03333333508 0
0.226666674 -0.03333333508 0
0.2133333384 -0.03333333508 0
0.2000000028 -0.03333333508 0
0.1866666676 -0.03333333508 0
0.173333332 -0.03333333508 0
0.1599999964 -0.03333333508 0
0.1466666608 -0.03333333508 0
0.1333333404 -0.03333333508 0
0.1199999972 -0.03333333508 0
0.1066666692 -0.03333333508 0
0.0933333336 -0.03333333508 0
0.0799999984 -0.03333333508 0
0.06666667 -0.03333333508 0
0.0533333348 -0.03333333508 0
0.03999999912 -0.03333333508 0
0.02666666732 -0.03333333508 0
0.01333333364 -0.03333333508 0
0.0 -0.03333333508 0
0.400000004 -0.0466666668 0
0.3866666556 -0.0466666668 0
0.3733333348 -0.0466666668 0
0.3600000144 -0.0466666668 0
0.346666664 -0.0466666668 0
0.3333333432 -0.0466666668 0
0.3199999928 -0.0466666668 0
0.3066666724 -0.0466666668 0
0.293333322 -0.0466666668 0
0.2800000012 -0.0466666668 0
0.2666666804 -0.0466666668 0
0.25333333 -0.0466666668 0
0.2399999948 -0.0466666668 0
0.226666674 -0.0466666668 0
0.2133333384 -0.0466666668 0
0.2000000028 -0.0466666668 0
0.1866666676 -0.0466666668 0
0.173333332 -0.0466666668 0
0.1599999964 -0.0466666668 0
0.1466666608 -0.0466666668 0
0.1333333404 -0.0466666668 0
0.1199999972 -0.0466666668 0
0.1066666692 -0.0466666668 0
0.0933333336 -0.0466666668 0
0.0799999984 -0.0466666668 0
0.06666667 -0.0466666668 0
0.0533333348 -0.0466666668 0
0.03999999912 -0.0466666668 0
0.02666666732 -0.0466666668 0
0.01333333364 -0.0466666668 0
0.0 -0.0466666668 0
0.400000004 -0.0599999988 0
0.3866666556 -0.0599999988 0
0.3733333348 -0.0599999988 0
0.3600000144 -0.0599999988 0
0.346666664 -0.0599999988 0
0.3333333432 -0.0599999988 0
0.3199999928 -0.0599999988 0
0.3066666724 -0.0599999988 0
0.293333322 -0.0599999988 0
0.2800000012 -0.0599999988 0
0.2666666804 -0.0599999988 0
0.25333333 -0.0599999988 0
0.2399999948 -0.0599999988 0
0.226666674 -0.0599999988 0
0.2133333384 -0.0599999988 0
0.2000000028 -0.0599999988 0
0.1866666676 -0.0599999988 0
0.173333332 -0.0599999988 0
0.1599999964 -0.0599999988 0
0.1466666608 -0.0599999988 0
0.1333333404 -0.0599999988 0
0.1199999972 -0.0599999988 0
0.1066666692 -0.0599999988 0
0.0933333336 -0.0599999988 0
0.0799999984 -0.0599999988 0
0.06666667 -0.0599999988 0
0.0533333348 -0.0599999988 0
0.03999999912 -0.0599999988 0
0.02666666732 -0.0599999988 0
0.01333333364 -0.0599999988 0
0.0 -0.0599999988 0
0.400000004 -0.0733333304 0
0.3866666556 -0.0733333304 0
0.3733333348 -0.0733333304 0
0.3600000144 -0.0733333304 0
0.346666664 -0.0733333304 0
0.3333333432 -0.0733333304 0
0.3199999928 -0.0733333304 0
0.3066666724 -0.0733333304 0
0.293333322 -0.0733333304 0
0.2800000012 -0.0733333304 0
0.2666666804 -0.0733333304 0
0.25333333 -0.0733333304 0
0.2399999948 -0.0733333304 0
0.226666674 -0.0733333304 0
0.2133333384 -0.0733333304 0
0.2000000028 -0.0733333304 0
0.1866666676 -0.0733333304 0
0.173333332 -0.0733333304 0
0.1599999964 -0.0733333304 0
0.1466666608 -0.0733333304 0
0.1333333404 -0.0733333304 0
0.1199999972 -0.0733333304 0
0.1066666692 -0.0733333304 0
0.0933333336 -0.0733333304 0
0.0799999984 -0.0733333304 0
0.06666667 -0.0733333304 0
0.0533333348 -0.0733333304 0
0.03999999912 -0.0733333304 0
0.02666666732 -0.0733333304 0
0.01333333364 -0.0733333304 0
0.0 -0.0733333304 0
0.400000004 -0.086666666 0
0.3866666556 -0.086666666 0
0.3733333348 -0.086666666 0
0.3600000144 -0.086666666 0
0.346666664 -0.086666666 0
0.3333333432 -0.086666666 0
0.3199999928 -0.086666666 0
0.3066666724 -0.086666666 0
0.293333322 -0.086666666 0
0.2800000012 -0.086666666 0
0.2666666804 -0.086666666 0
0.25333333 -0.086666666 0
0.2399999948 -0.086666666 0
0.226666674 -0.086666666 0
0.2133333384 -0.086666666 0
0.2000000028 -0.086666666 0
0.1866666676 -0.086666666 0
0.173333332 -0.086666666 0
0.1599999964 -0.086666666 0
0.1466666608 -0.086666666 0
0.1333333404 -0.086666666 0
0.1199999972 -0.086666666 0
0.1066666692 -0.086666666 0
0.0933333336 -0.086666666 0
0.0799999984 -0.086666666 0
0.06666667 -0.086666666 0
0.0533333348 -0.086666666 0
0.03999999912 -0.086666666 0
0.02666666732 -0.086666666 0
0.01333333364 -0.086666666 0
0.0 -0.086666666 0
0.400000004 -0.1000000016 0
0.3866666556 -0.1000000016 0
0.3733333348 -0.1000000016 0
0.3600000144 -0.1000000016 0
0.346666664 -0.1000000016 0
0.3333333432 -0.1000000016 0
0.3199999928 -0.1000000016 0
0.3066666724 -0.1000000016 0
0.293333322 -0.1000000016 0
0.2800000012 -0.1000000016 0
0.2666666804 -0.1000000016 0
0.25333333 -0.1000000016 0
0.2399999948 -0.1000000016 0
0.226666674 -0.1000000016 0
0.2133333384 -0.1000000016 0
0.2000000028 -0.1000000016 0
0.1866666676 -0.1000000016 0
0.173333332 -0.1000000016 0
0.1599999964 -0.1000000016 0
0.1466666608 -0.1000000016 0
0.1333333404 -0.1000000016 0
0.1199999972 -0.1000000016 0
0.1066666692 -0.1000000016 0
0.0933333336 -0.1000000016 0
0.0799999984 -0.1000000016 0
0.06666667 -0.1000000016 0
0.0533333348 -0.1000000016 0
0.03999999912 -0.1000000016 0
0.02666666732 -0.1000000016 0
0.01333333364 -0.1000000016 0
0.0 -0.1000000016 0
0.400000004 -0.1133333372 0
0.3866666556 -0.1133333372 0
0.3733333348 -0.1133333372 0
0.3600000144 -0.1133333372 0
0.346666664 -0.1133333372 0
0.3333333432 -0.1133333372 0
0.3199999928 -0.1133333372 0
0.3066666724 -0.1133333372 0
0.293333322 -0.1133333372 0
0.2800000012 -0.1133333372 0
0.2666666804 -0.1133333372 0
0.25333333 -0.1133333372 0
0.2399999948 -0.1133333372 0
0.226666674 -0.1133333372 0
0.2133333384 -0.1133333372 0
0.2000000028 -0.1133333372 0
0.1866666676 -0.1133333372 0
0.173333332 -0.1133333372 0
0.1599999964 -0.1133333372 0
0.1466666608 -0.1133333372 0
0.1333333404 -0.1133333372 0
0.1199999972 -0.1133333372 0
0.1066666692 -0.1133333372 0
0.0933333336 -0.1133333372 0
0.0799999984 -0.1133333372 0
0.06666667 -0.1133333372 0
0.0533333348 -0.1133333372 0
0.03999999912 -0.1133333372 0
0.02666666732 -0.1133333372 0
0.01333333364 -0.1133333372 0
0.0 -0.1133333372 0
0.400000004 -0.1266666652 0
0.3866666556 -0.1266666652 0
0.3733333348 -0.1266666652 0
[...]
POINT_DATA 961
SCALARS Temp float 1
LOOKUP_TABLE default
0.6641722270248833
0.6906994630540825
0.7097363426225167
0.7235780097919493
0.7337199005814189
0.7411874689596247
0.7467107743697566
0.7508152857216476
0.7538834607363367
0.7561955308722965
0.7579592638662811
0.7593306011553406
0.7604287150000621
0.7613477269041837
0.7621654511801758
0.762950331067066
0.763767790250083
0.7646860715475224
0.7657823707731295
0.7671498539921984
0.7689062035037935
0.7712048690547338
0.7742494097879723
0.778313871714312
0.7837701448868518
0.791126788113654
0.8010843428360068
0.814616256189562
0.8330921429981906
0.8584997110351398
0.8939919650291014
0.7010212331218053
0.7270330601626726
0.7458654681766033
0.7596313659653431
0.769738427781107
0.7771916960703475
0.7827106898753331
0.786815861590032
0.7898870476534599
0.7922031156215597
0.7939711330033657
0.7953467118714878
0.7964489079984406
0.7973718404564433
0.7981933845157633
0.7989820816860025
0.7998034675311281
0.8007258961577143
0.8018266573016607
0.8031989689568936
0.8049604843377994
0.8072644684174535
0.8103140269663271
0.8143822564990012
0.8198392085681495
0.8271899395815708
0.8371282609371962
0.8506137082355294
0.8689869319630643
0.894135453177707
0.9287931967662033
2.426257415378817
2.4301218516220824
2.4408921371891954
2.450825511673455
2.4590395273528998
2.4655747340972627
2.4706915108589103
2.4746709478878657
2.47776237526613
2.4801727294354667
2.482069431563531
2.4835870939488407
2.484834788277423
2.48590284353098
2.4868688957352787
2.487803297332358
2.4887741480265113
2.489852228706318
2.4911161050405166
2.492657717903962
2.4945887728048755
2.4970481398745212
2.50021039207695
2.504295146034898
2.509575747063624
2.5163828454322417
2.5250900594977024
2.5360435862558104
2.5492967659799524
2.5636631015806612
2.56882077133774
4.129992870330226
4.132101716821557
4.13727760488505
4.143744996555531
4.149876929797564
4.15519301297485
4.159615190430018
4.163217875583925
4.166124135751757
4.168463672504615
4.170356801206321
4.17190966402367
4.173214432884315
4.174351659446429
4.175393459361477
4.176407004229116
4.1774581370662185
4.178615058082448
4.179952110353584
4.181553675463367
4.183518096143393
4.185961352610661
4.1890196876239285
4.192849541492517
4.197620890269122
4.20349556216107
4.210571037652454
4.218741562842255
4.227363979303132
4.234266544353212
4.237078883072855
5.828696519328061
5.829818764540319
5.832851702456805
5.836958137329936
5.841331038775397
5.84543967280554
5.849065598119053
5.852157240431321
5.854744334159138
5.856891562005703
5.858675169091034
5.860171838655549
5.861454150185727
5.862589534509853
5.863641038227618
5.864669036299043
5.8657334335186935
5.866896071427119
5.868223157505282
5.869787502182651
5.871670216443494
5.873961253329425
5.876757568157419
5.880156756126545
5.884241948274721
5.889050323326135
5.8945111232647225
5.900331157952564
5.905800914114269
5.909842453772468
5.911338177521776
7.5243640226362505
7.525047485105276
7.526938588489208
7.5296460584713225
7.532717045396162
7.535790309479837
7.538645264641309
7.541182383222009
7.543378670528224
7.54525406011372
7.546850126835761
7.548217718699808
7.549410392743909
7.550481427375613
7.551482940607593
7.552466233752612
7.553482807358881
7.554585649942073
7.55583049207638
7.557276683554875
7.558987218579255
7.561027186213343
7.563459416171328
7.566335466849643
7.569678895640035
7.573456613077665
7.577533940708473
7.581615011377241
7.585216638743448
7.587733715461845
7.588643637542283
9.21798773031502
9.218422944408472
9.219649897757952
9.221463592640804
9.223607769305962
9.225848374290361
9.22801566839507
9.230010162105085
9.231788896685233
9.233346983287124
9.234702599875213
9.235886602040361
9.236936074002509
9.237890739873187
9.238791263682621
9.239678742010334
9.240594882801725
9.24158246019978
9.242685703155788
9.243950243558617
9.245422145853933
9.247145368165647
9.249156689199271
9.25147690523761
9.254096784864922
9.256956856997263
9.259922704295821
9.262766508697744
9.265174976846733
9.266805458708117
9.267383997033681
10.910005125381502
10.910285356587032
10.911084120109784
10.912289538692537
10.9137538440018
10.915331013622106
10.916903239012154
10.918391255934285
10.919752162562776
10.920971325465414
10.922053524208076
10.923015667513049
10.923881648544144
10.92467910175707
10.925437572829823
10.926187652226933
10.926960688242714
10.927788732513818
10.928704411865974
10.929740395171198
10.930928058417726
10.932294863083875
10.933859825091757
10.935626508051861
10.937573168665242
10.939640797783518
10.941722265629778
10.9436592998776
10.945256265018257
10.94631542406868
10.946687162373088
12.600633517426111
12.600806369452764
12.60130266475893
12.60206193821142
12.603001570787935
12.604035701077558
12.60509036232147
12.606111427881727
12.607065874598911
12.607938802892832
12.60872892901716
12.609444220406235
12.610098456440475
12.610708850634426
12.611294561453333
12.61187585412508
12.612473669994847
12.613109358765438
12.613804348887163
12.614579514443925
12.615453964228314
12.616442950795706
12.617554568704453
12.618785076432252
12.6201129838816
12.621492942542922
12.622851733611098
12.624089878730306
12.625092235968252
12.625748157948458
12.625976725378452
14.289978819058772
14.290069072708995
14.29032963983991
14.290732533946858
14.291238685653212
14.291806184307912
14.292397368255177
14.292983121887147
14.293544240859973
14.294070638728641
14.294559521344077
14.295013355309864
14.295438119014523
14.295842002416215
14.2962345255136
14.296625983172335
14.297027101743051
14.297448779011438
14.297901786927095
14.298396307765467
14.298941163269335
14.299542596678865
14.300202476561152
14.300915923247441
14.301668554929233
14.30243400305956
14.303172837434957
14.303834347913515
14.304362275461356
14.304704251090211
14.304822791989091
15.978091821933782
15.978110676741474
15.978166075038276
15.978254733178307
15.978371824685837
15.978511741386983
15.978668844915932
15.978838048566677
15.979015172427502
15.979197072996659
15.979381616034512
15.979567550082738
15.97975433920589
15.979941992404806
15.980130901996255
15.980321696245007
15.980515105194442
15.980711828861308
15.98091239908633
15.981117025109066
15.981325414833151
15.981536570887673
15.981748564556433
15.98195831893224
15.98216144104934
15.982352182234349
15.98252361442205
15.982668098739364
15.982778064560064
15.982847008959958
15.982870513156605
16.072278542012164
16.072294067553802
16.072339854630293
16.072413659796418
16.07251212585455
16.072631247089415
16.07276685427948
16.07291502132536
16.073072349816343
16.073236112815877
16.073404288984737
16.073575512854056
16.073748978255516
16.073924322967287
16.074101505980472
16.074280685458074
16.074462100852333
16.074645953759084
16.07483228417478
16.075020837918093
16.075210923082558
16.075401259976168
16.0755898314828
16.075773762553652
16.075949256808478
16.076111640828998
16.07625556033531
16.076375356348294
16.07646561075557
16.076521791140028
16.07654087254104
16.166368110958846
16.166381142670758
16.166419686585947
16.166482165032182
16.166566182737796
16.16666881972065
16.16678694995473
16.166917524534266
16.16705778943869
16.167205415622902
16.1673585553268
16.167515833250828
16.167676294872354
16.167839331356056
16.1680045895026
16.168171874878244
16.168341053647936
16.168511951096452
16.168684247090994
16.16885736800451
16.169030376406244
16.169201865146448
16.16936986295912
16.169531774940076
16.169684375077942
16.169823881744545
16.16994613625956
16.17004689129567
16.170122191976937
16.170168799556023
16.17018458337515
16.26036525558371
16.260376372071313
16.260409325998538
16.26046297847822
16.260535579585635
16.26062495757312
16.260728731968644
16.260844511343798
16.260970056430732
16.261103388238286
16.26124284758113
16.26138710602087
16.26153514127751
16.26168619009907
16.26183968396879
16.261995174719893
16.262152256132875
16.26231048137605
16.262469278613978
16.262627866448632
16.262785172152938
16.26293975963669
16.2630897729345
16.263232913193853
16.263366458336684
16.263487343918662
16.26359231275509
16.263678131451073
16.263741857742076
16.26378112395275
16.263794390766332
16.354273530644893
16.35428314438563
16.354311694514237
16.35435833860385
16.354421769004876
16.354500337879813
16.354592202116816
16.354695462294625
16.354808283749925
16.35492898267132
16.355056080637034
16.355188323619345
16.355324673044315
16.35546427747809
16.355606427852607
16.355750501937344
16.35589590388534
16.356041999564304
16.356188050959865
16.3563331523047
16.35647617140991
16.356615702537674
16.356750034908323
16.356877150376967
16.356994754136718
16.357100349558877
16.357191358567448
16.357265282809202
16.357319892618616
16.357353419983912
16.35736472678177
16.448095632106288
16.448104044996896
16.44812906424559
16.448170052043864
16.44822600956528
16.44829566125433
16.44837755494152
16.448470160236447
16.448571958178903
16.448681508247038
16.448797495118196
16.448918749664998
16.449044248645247
16.44917309879613
16.449304506487312
16.449437737366793
16.449572071226775
16.44970675303251
16.449840943646464
16.449973673153472
16.450103800144888
16.45022998235653
16.450350661210994
16.450464070443577
16.450568269392388
16.45066120776232
16.450740820461856
16.45080514735131
16.450852468058965
16.450881435520046
16.45089118989618
16.538827032281432
16.538834469236345
16.538856610866116
16.538892963339084
16.53894274723652
16.539004955384762
16.539078423052644
16.539161898200206
16.53925410798913
16.539353810317394
16.539459832562823
16.53957109168487
16.539686598402394
16.53980544936097
16.539926807283493
16.540049872483994
16.54017385026607
16.540297915051454
16.540421174603903
16.54054263709334
16.540661183937747
16.54077555283323
16.540884332300074
16.5409859755007
16.541078832020712
16.54116120198192
16.541231410004006
16.54128789437128
16.541329304194836
16.541354593260763
16.541363098653754
16.623441358781946
16.623447990828318
16.623467753527024
16.623500256150678
16.623544877697054
16.623600807198514
16.623667093635465
16.623742696528527
16.623826535513192
16.623917529771273
16.624014629580373
16.624116834353806
16.624223198944314
16.624332831013774
16.62444487874138
16.624558511427974
16.624672896832106
16.624787175839252
16.624900437462877
16.62501169656539
16.62511987671639
16.62522380171041
16.625322196176338
16.625413701318898
16.62549690347871
16.62557037851461
16.62563274927629
16.62568275231208
16.625719308632874
16.62574159062689
16.625749077266622
16.70190892131524
16.70191488246927
16.701932658427026
16.701961933431292
16.702002202490284
16.702052799885628
16.70211293515366
16.70218172986007
16.702258254816087
16.702341560245102
16.702430701302642
16.702524753765687
16.702622821165313
16.702724035479033
16.70282755023479
16.702932527961785
16.703038125213887
16.703143475482793
16.70324767256545
16.70334975635642
16.70344870297037
16.70354342197315
16.703632760532297
16.703715519319246
16.703790477382253
16.703856428237003
16.70391222456871
16.703956828472776
16.703989363562155
16.704009163347575
16.70401581062961
16.774202129410863
16.77420752700184
16.77422363133293
16.77425018191861
16.77428675983323
16.774332808156455
16.77438765827554
16.774450556887313
16.774520694201886
16.774597227112007
16.77467929985102
16.77476605745589
16.77485665304983
16.774950250634483
16.77504602201776
16.775143139349066
16.77524076596991
16.775338045629155
16.77543409219999
16.775527981464567
16.7756187464188
16.77570537827873
16.775786832587148
16.77586204439774
16.775929949599647
16.775989514209773
16.776039769296197
16.77607984913621
16.77610903003338
16.776126765782205
16.776132716210697
16.840295451169283
16.840300373001238
16.840315064245278
16.84033930567339
16.840372742965663
16.8404149015807
16.840465206267254
16.840523001116484
16.840587571189413
16.84065816044713
16.840733988580485
16.840814262535574
16.840898183616794
16.84098495158595
16.841073764279308
16.84116381387112
16.84125428206571
16.841344334038432
16.841433112879812
16.84151973575135
16.84160329282901
16.841682850749304
16.841757459695582
16.841826167488698
16.841888037760018
16.841942173798035
16.841987746033077
16.842024021312355
16.84205039217928
16.842066403237613
16.842071772149126
16.900165398437245
16.900169917842124
16.900183412485173
16.900205694268656
16.90023645786839
16.90027529171079
16.900321692680947
16.900375081209116
16.900434818094865
16.90050021853707
16.90057056599558
16.900645122107903
16.900723133474447
16.900803836551887
16.90088645914455
16.900970219369682
16.901054324033637
16.901137966057227
16.90122032237925
16.901300553248987
16.901377803682678
16.90145120844082
16.901519899507512
16.901583018988752
16.901639734609475
16.901689259262298
16.901730872855268
16.901763945041207
16.901787957606402
16.90180252436115
16.901807406829413
16.953790887309946
16.95379506676958
16.953807549687472
16.953828171659186
16.95385666482458
16.95389266610352
16.95393572848406
16.953985332547695
16.954040899781845
16.95410180371885
16.954167381520726
16.954236942598627
16.954309775042923
16.95438515098077
16.9544623293601
16.95454055684935
16.954619068514603
16.954697087774154
16.954773826793513
16.954848487992564
16.954920267206226
16.954988359583876
16.95505196712257
16.95511031041869
16.955162641956388
16.955208262299145
16.955246537677308
16.955276917883346
16.95529895365579
16.955312311928157
16.955316787748895
17.001152578525254
17.00115647231601
17.001168104423122
17.001187328579196
17.001213905722526
17.00124751029279
17.001287739072556
17.00133412015342
17.001386123680554
17.001443170857407
17.001504643797936
17.001569893120735
17.001638244037792
17.001709001965605
17.001781456189043
17.001854882128857
17.001928543657254
17.00200169486064
17.002073582200893
17.002143447560144
17.002210532533226
17.00227408484851
17.002333365771754
17.002387660826386
17.00243629129588
17.00247862781466
17.002514104744346
17.002542234495817
17.002562621264282
17.002574972931487
17.002579110289272
17.042233784127706
17.042237440277557
17.042248364203292
17.04226642354191
17.042291401392596
17.04232300123504
17.04236085401802
17.042404525286333
17.042453524051204
17.04250731022657
17.04256530317399
17.042626888499285
17.04269142383694
17.042758244583823
17.042826668152003
17.04289599719024
17.042965523048238
17.0430345288122
17.043102292697935
17.043168092143972
17.04323120883715
17.043290935398826
17.04334658257324
17.04339748906065
17.043443031599793
17.043482636561734
17.043515791915734
17.043542058913452
17.043561083161116
17.043572604102454
17.04357646230603
17.077019642704183
17.077023104477437
17.077033448884574
17.07705055417006
17.077074220394742
17.0771041733785
17.07714007053573
17.077181506686344
17.07722802156541
17.077279106116478
17.07733421006009
17.077392748080428
17.077454105351894
17.077517643316842
17.077582704325117
17.07764861551003
17.077714693044115
17.07778024605553
17.07784458086461
17.077907005777575
17.07796683657294
17.07802340329609
17.078076057207074
17.078124179877925
17.07816719216666
17.078204564295653
17.078235826022855
17.078260576389383
17.0782784928554
17.07828933903784
17.07829297060923
17.105497811771873
17.105501118813823
17.105511001737113
17.10552734675731
17.10554996671712
17.10557860434407
17.10561293719957
17.10565258255875
17.105697103945122
17.105746016602687
17.105798794348082
17.105854875300555
17.10591366720006
17.10597455318562
17.106036896682326
17.106100045717497
17.10616333771024
17.10622610398443
17.10628767457055
17.10634738345618
17.106404574351423
17.10645860750354
17.10650886641588
17.10655476635768
17.10659576249381
17.1066313588348
17.106661117092706
17.106684665025952
17.10670170418361
17.106712016397253
17.106715468693206
17.127658136891696
17.12766132613898
17.127670857647118
17.127686623429234
17.12770844564556
17.127736079391976
17.127769217037464
17.127807492461976
17.127850486911473
17.127897733896774
17.127948725536594
17.1280029179578
17.128059736453707
17.12811858124338
17.128178832511733
17.128239855012797
17.12830100320849
17.12836162617329
17.12842107276324
17.12847869715471
17.128533864771292
17.128585959075632
17.128634388094493
17.12867859248191
17.12871805303082
17.128752298810927
17.128780915090164
17.12880355069207
17.128819924766884
17.128829832416653
17.128833148923857
17.14349258035696
17.143495686783154
17.143504971165072
17.14352032945615
17.14354159016032
17.143568516816607
17.143600811938185
17.14363812083267
17.143680037010736
17.143726106708748
17.143775834892196
17.14382869043388
17.143884111159448
17.143941509583534
17.1440002780396
17.144059793460308
17.144119422732185
17.144178527843522
17.144236471278983
17.144292621730383
17.144346360111356
17.144397086314306
17.144444225589403
17.144487236295262
17.14452561698906
17.14455891401782
17.144586728817117
17.14460872461515
17.14462463256285
17.144634256790596
17.144637478189637
17.152995538152716
17.15299859539975
17.153007733020075
17.153022849255027
17.15304377629621
17.15307028259945
17.153102076599485
17.15313881029492
17.153180084404227
17.153225452674867
17.15327442769269
17.15332648593171
17.153381072732742
17.153437608022234
17.15349549148818
17.153554107456227
17.153612830360995
17.15367103002581
17.153728077178577
17.153783349252993
17.15383623644523
17.153886148443103
17.153932520714807
17.15397482207475
17.154012561528685
17.154045295549952
17.15407263502175
17.15409425156892
17.154109883324132
17.154119339662557
17.15412250473063
17.156163559797374
17.15616660073569
17.156175689684247
17.156190725634666
17.1562115419886
17.156237908816717
17.156269536500822
17.15630607924305
17.156347140139843
17.156392275422192
17.156441000201642
17.156492793478257
17.15654710309703
17.156603351460337
17.156660940718055
17.15671925767382
17.156777679293114
17.15683557802467
17.15689232735452
17.156947307635193
17.1569999121548
17.157049553855682
17.15709567159288
17.15713773763863
17.157175264447105
17.15720781182795
17.157234993772406
17.15725648466417
17.15727202492766
17.157281425658375
17.157284572069976
