# vtk DataFile Version 2.0
Unstructured Grid Example
ASCII
DATASET UNSTRUCTURED_GRID

POINTS 961 float
0.400000004 0.01999999956 0
0.3866666556 0.01999999956 0
0.3733333348 0.01999999956 0
0.3600000144 0.01999999956 0
0.346666664 0.01999999956 0
0.3333333432 0.01999999956 0
0.3199999928 0.01999999956 0
0.3066666724 0.01999999956 0
0.293333322 0.01999999956 0
0.2800000012 0.01999999956 0
0.2666666804 0.01999999956 0
0.25333333 0.01999999956 0
0.2399999948 0.01999999956 0
0.226666674 0.01999999956 0
0.2133333384 0.01999999956 0
0.2000000028 0.01999999956 0
0.1866666676 0.01999999956 0
0.173333332 0.01999999956 0
0.1599999964 0.01999999956 0
0.1466666608 0.01999999956 0
0.1333333404 0.01999999956 0
0.1199999972 0.01999999956 0
0.1066666692 0.01999999956 0
0.0933333336 0.01999999956 0
0.0799999984 0.01999999956 0
0.06666667 0.01999999956 0
0.0533333348 0.01999999956 0
0.03999999912 0.01999999956 0
0.02666666732 0.01999999956 0
0.01333333364 0.01999999956 0
0.0 0.01999999956 0
0.400000004 0.00666666684 0
0.3866666556 0.00666666684 0
0.3733333348 0.00666666684 0
0.3600000144 0.00666666684 0
0.346666664 0.00666666684 0
0.3333333432 0.00666666684 0
0.3199999928 0.00666666684 0
0.3066666724 0.00666666684 0
0.293333322 0.00666666684 0
0.2800000012 0.00666666684 0
0.2666666804 0.00666666684 0
0.25333333 0.00666666684 0
0.2399999948 0.00666666684 0
0.226666674 0.00666666684 0
0.2133333384 0.00666666684 0
0.2000000028 0.00666666684 0
0.1866666676 0.00666666684 0
0.173333332 0.00666666684 0
0.1599999964 0.00666666684 0
0.1466666608 0.00666666684 0
0.1333333404 0.00666666684 0
0.1199999972 0.00666666684 0
0.1066666692 0.00666666684 0
0.0933333336 0.00666666684 0
0.0799999984 0.00666666684 0
0.06666667 0.00666666684 0
0.0533333348 0.00666666684 0
0.03999999912 0.00666666684 0
0.02666666732 0.00666666684 0
0.01333333364 0.00666666684 0
0.0 0.00666666684 0
0.400000004 -0.00666666684 0
0.3866666556 -0.00666666684 0
0.3733333348 -0.00666666684 0
0.3600000144 -0.00666666684 0
0.346666664 -0.00666666684 0
0.3333333432 -0.00666666684 0
0.3199999928 -0.00666666684 0
0.3066666724 -0.00666666684 0
0.293333322 -0.00666666684 0
0.2800000012 -0.00666666684 0
0.2666666804 -0.00666666684 0
0.25333333 -0.00666666684 0
0.2399999948 -0.00666666684 0
0.226666674 -0.00666666684 0
0.2133333384 -0.00666666684 0
0.2000000028 -0.00666666684 0
0.1866666676 -0.00666666684 0
0.173333332 -0.00666666684 0
0.1599999964 -0.00666666684 0
0.1466666608 -0.00666666684 0
0.1333333404 -0.00666666684 0
0.1199999972 -0.00666666684 0
0.1066666692 -0.00666666684 0
0.0933333336 -0.00666666684 0
0.0799999984 -0.00666666684 0
0.06666667 -0.00666666684 0
0.0533333348 -0.00666666684 0
0.03999999912 -0.00666666684 0
0.02666666732 -0.00666666684 0
0.01333333364 -0.00666666684 0
0.0 -0.00666666684 0
0.400000004 -0.01999999956 0
0.3866666556 -0.01999999956 0
0.3733333348 -0.01999999956 0
0.3600000144 -0.01999999956 0
0.346666664 -0.01999999956 0
0.3333333432 -0.01999999956 0
0.3199999928 -0.01999999956 0
0.3066666724 -0.01999999956 0
0.293333322 -0.01999999956 0
0.2800000012 -0.01999999956 0
0.2666666804 -0.01999999956 0
0.25333333 -0.01999999956 0
0.2399999948 -0.01999999956 0
0.226666674 -0.01999999956 0
0.2133333384 -0.01999999956 0
0.2000000028 -0.01999999956 0
0.1866666676 -0.01999999956 0
0.173333332 -0.01999999956 0
0.1599999964 -0.01999999956 0
0.1466666608 -0.01999999956 0
0.1333333404 -0.01999999956 0
0.1199999972 -0.01999999956 0
0.1066666692 -0.01999999956 0
0.0933333336 -0.01999999956 0
0.0799999984 -0.01999999956 0
0.06666667 -0.01999999956 0
0.0533333348 -0.01999999956 0
0.03999999912 -0.01999999956 0
0.02666666732 -0.01999999956 0
0.01333333364 -0.01999999956 0
0.0 -0.01999999956 0
0.400000004 -0.03333333508 0
0.3866666556 -0.03333333508 0
0.3733333348 -0.03333333508 0
0.3600000144 -0.03333333508 0
0.346666664 -0.03333333508 0
0.3333333432 -0.03333333508 0
0.3199999928 -0.03333333508 0
0.3066666724 -0.03333333508 0
0.293333322 -0.03333333508 0
0.2800000012 -0.03333333508 0
0.2666666804 -0.03333333508 0
0.25333333 -0.03333333508 0
0.2399999948 -0.03333333508 0
0.226666674 -0.03333333508 0
0.2133333384 -0.03333333508 0
0.2000000028 -0.03333333508 0
0.1866666676 -0.03333333508 0
0.173333332 -0.03333333508 0
0.1599999964 -0.03333333508 0
0.1466666608 -0.03333333508 0
0.1333333404 -0.03333333508 0
0.1199999972 -0.03333333508 0
0.1066666692 -0.03333333508 0
0.0933333336 -0.03333333508 0
0.0799999984 -0.03333333508 0
0.06666667 -0.03333333508 0
0.0533333348 -0.03333333508 0
0.03999999912 -0.03333333508 0
0.02666666732 -0.03333333508 0
0.01333333364 -0.03333333508 0
0.0 -0.03333333508 0
0.400000004 -0.0466666668 0
0.3866666556 -0.0466666668 0
0.3733333348 -0.0466666668 0
0.3600000144 -0.0466666668 0
0.346666664 -0.0466666668 0
0.3333333432 -0.0466666668 0
0.3199999928 -0.0466666668 0
0.3066666724 -0.0466666668 0
0.293333322 -0.0466666668 0
0.2800000012 -0.0466666668 0
0.2666666804 -0.0466666668 0
0.25333333 -0.0466666668 0
0.2399999948 -0.0466666668 0
0.226666674 -0.0466666668 0
0.2133333384 -0.0466666668 0
0.2000000028 -0.0466666668 0
0.1866666676 -0.0466666668 0
0.173333332 -0.0466666668 0
0.1599999964 -0.0466666668 0
0.1466666608 -0.0466666668 0
0.1333333404 -0.0466666668 0
0.1199999972 -0.0466666668 0
0.1066666692 -0.0466666668 0
0.0933333336 -0.0466666668 0
0.0799999984 -0.0466666668 0
0.06666667 -0.0466666668 0
0.0533333348 -0.0466666668 0
0.03999999912 -0.0466666668 0
0.02666666732 -0.0466666668 0
0.01333333364 -0.0466666668 0
0.0 -0.0466666668 0
0.400000004 -0.0599999988 0
0.3866666556 -0.0599999988 0
0.3733333348 -0.0599999988 0
0.3600000144 -0.0599999988 0
0.346666664 -0.0599999988 0
0.3333333432 -0.0599999988 0
0.3199999928 -0.0599999988 0
0.3066666724 -0.0599999988 0
0.293333322 -0.0599999988 0
0.2800000012 -0.0599999988 0
0.2666666804 -0.0599999988 0
0.25333333 -0.0599999988 0
0.2399999948 -0.0599999988 0
0.226666674 -0.0599999988 0
0.2133333384 -0.0599999988 0
0.2000000028 -0.0599999988 0
0.1866666676 -0.0599999988 0
0.173333332 -0.0599999988 0
0.1599999964 -0.0599999988 0
0.1466666608 -0.0599999988 0
0.1333333404 -0.0599999988 0
0.1199999972 -0.0599999988 0
0.1066666692 -0.0599999988 0
0.0933333336 -0.0599999988 0
0.0799999984 -0.0599999988 0
0.06666667 -0.0599999988 0
0.0533333348 -0.0599999988 0
0.03999999912 -0.0599999988 0
0.02666666732 -0.0599999988 0
0.01333333364 -0.0599999988 0
0.0 -0.0599999988 0
0.400000004 -0.0733333304 0
0.3866666556 -0.0733333304 0
0.3733333348 -0.0733333304 0
0.3600000144 -0.0733333304 0
0.346666664 -0.0733333304 0
0.3333333432 -0.0733333304 0
0.3199999928 -0.0733333304 0
0.3066666724 -0.0733333304 0
0.293333322 -0.0733333304 0
0.2800000012 -0.0733333304 0
0.2666666804 -0.0733333304 0
0.25333333 -0.0733333304 0
0.2399999948 -0.0733333304 0
0.226666674 -0.0733333304 0
0.2133333384 -0.0733333304 0
0.2000000028 -0.0733333304 0
0.1866666676 -0.0733333304 0
0.173333332 -0.0733333304 0
0.1599999964 -0.0733333304 0
0.1466666608 -0.0733333304 0
0.1333333404 -0.0733333304 0
0.1199999972 -0.0733333304 0
0.1066666692 -0.0733333304 0
0.0933333336 -0.0733333304 0
0.0799999984 -0.0733333304 0
0.06666667 -0.0733333304 0
0.0533333348 -0.0733333304 0
0.03999999912 -0.0733333304 0
0.02666666732 -0.0733333304 0
0.01333333364 -0.0733333304 0
0.0 -0.0733333304 0
0.400000004 -0.086666666 0
0.3866666556 -0.086666666 0
0.3733333348 -0.086666666 0
0.3600000144 -0.086666666 0
0.346666664 -0.086666666 0
0.3333333432 -0.086666666 0
0.3199999928 -0.086666666 0
0.3066666724 -0.086666666 0
0.293333322 -0.086666666 0
0.2800000012 -0.086666666 0
0.2666666804 -0.086666666 0
0.25333333 -0.086666666 0
0.2399999948 -0.086666666 0
0.226666674 -0.086666666 0
0.2133333384 -0.086666666 0
0.2000000028 -0.086666666 0
0.1866666676 -0.086666666 0
0.173333332 -0.086666666 0
0.1599999964 -0.086666666 0
0.1466666608 -0.086666666 0
0.1333333404 -0.086666666 0
0.1199999972 -0.086666666 0
0.1066666692 -0.086666666 0
0.0933333336 -0.086666666 0
0.0799999984 -0.086666666 0
0.06666667 -0.086666666 0
0.0533333348 -0.086666666 0
0.03999999912 -0.086666666 0
0.02666666732 -0.086666666 0
0.01333333364 -0.086666666 0
0.0 -0.086666666 0
0.400000004 -0.1000000016 0
0.3866666556 -0.1000000016 0
0.3733333348 -0.1000000016 0
0.3600000144 -0.1000000016 0
0.346666664 -0.1000000016 0
0.3333333432 -0.1000000016 0
0.3199999928 -0.1000000016 0
0.3066666724 -0.1000000016 0
0.293333322 -0.1000000016 0
0.2800000012 -0.1000000016 0
0.2666666804 -0.1000000016 0
0.25333333 -0.1000000016 0
0.2399999948 -0.1000000016 0
0.226666674 -0.1000000016 0
0.2133333384 -0.1000000016 0
0.2000000028 -0.1000000016 0
0.1866666676 -0.1000000016 0
0.173333332 -0.1000000016 0
0.1599999964 -0.1000000016 0
0.1466666608 -0.1000000016 0
0.1333333404 -0.1000000016 0
0.1199999972 -0.1000000016 0
0.1066666692 -0.1000000016 0
0.0933333336 -0.1000000016 0
0.0799999984 -0.1000000016 0
0.06666667 -0.1000000016 0
0.0533333348 -0.1000000016 0
0.03999999912 -0.1000000016 0
0.02666666732 -0.1000000016 0
0.01333333364 -0.1000000016 0
0.0 -0.1000000016 0
0.400000004 -0.1133333372 0
0.3866666556 -0.1133333372 0
0.3733333348 -0.1133333372 0
0.3600000144 -0.1133333372 0
0.346666664 -0.1133333372 0
0.3333333432 -0.1133333372 0
0.3199999928 -0.1133333372 0
0.3066666724 -0.1133333372 0
0.293333322 -0.1133333372 0
0.2800000012 -0.1133333372 0
0.2666666804 -0.1133333372 0
0.25333333 -0.1133333372 0
0.2399999948 -0.1133333372 0
0.226666674 -0.1133333372 0
0.2133333384 -0.1133333372 0
0.2000000028 -0.1133333372 0
0.1866666676 -0.1133333372 0
0.173333332 -0.1133333372 0
0.1599999964 -0.1133333372 0
0.1466666608 -0.1133333372 0
0.1333333404 -0.1133333372 0
0.1199999972 -0.1133333372 0
0.1066666692 -0.1133333372 0
0.0933333336 -0.1133333372 0
0.0799999984 -0.1133333372 0
0.06666667 -0.1133333372 0
0.0533333348 -0.1133333372 0
0.03999999912 -0.1133333372 0
0.02666666732 -0.1133333372 0
0.01333333364 -0.1133333372 0
0.0 -0.1133333372 0
0.400000004 -0.1266666652 0
0.3866666556 -0.1266666652 0
0.3733333348 -0.1266666652 0
[...]
POINT_DATA 961
SCALARS Temp float 1
LOOKUP_TABLE default
0.7616526874023187
0.7920766094273765
0.8139168644725345
0.8298035985076027
0.8414502754101392
0.8500318957909804
0.8563850332551551
0.8611118718571538
0.8646507572650142
0.8673229213902297
0.8693665814801073
0.8709605837601675
0.8722416542809954
0.873317825926092
0.8742784566778163
0.8752021769552335
0.8761641680131839
0.8772428525709434
0.8785269238764343
0.8801233871483011
0.8821673526885907
0.8848349293424433
0.8883596582339828
0.8930558638798939
0.8993500014189536
0.9078251447633919
0.9192843697466279
0.9348434848580964
0.9560722956742225
0.9852489438189158
1.025987992926096
0.8038643448215471
0.8336967407854776
0.8553025139708549
0.8711023163651044
0.8827090294756061
0.8912742433246051
0.8976224443422726
0.9023500625449097
0.9058924360138183
0.9085692308790532
0.9106178596704
0.9122167892203438
0.9135026103476619
0.9145833515242443
0.9155484390201208
0.9164766143180786
0.9174431852954391
0.9185267005387273
0.9198159591290475
0.9214180237903766
0.9234679691930124
0.9261416896807112
0.9296722034219688
0.9343727424182788
0.9406676489430079
0.9491359746280468
0.9605730694054058
0.9760787768144854
0.9971896568565733
1.0260689769581166
1.065849478120541
2.7801338387042263
2.7845682259360363
2.796927095581415
2.808330492368528
2.8177654054300794
2.8252775150879836
2.8311648023426614
2.8357491736300187
2.8393162507296
2.842103144415772
2.8443017303920444
2.8460663204243404
2.8475219823657585
2.8487723245829235
2.849906424611122
2.8510050249264776
2.852146295773399
2.8534114869472536
2.854890773759208
2.8566896601752427
2.858936296231227
2.861789951461665
2.865450788559291
2.8701705512537794
2.876262489172124
2.8841054076299213
2.894127145463369
2.906723711649433
2.9219545867115473
2.938455884471772
2.9443800061325622
4.731711112804793
4.734131911972757
4.740074579748333
4.747502439018606
4.754549070826828
4.760662923892219
4.765753940492516
4.769907024384294
4.773262977371286
4.775970294755859
4.778166776906147
4.779974024662851
4.7814976595026755
4.782830008396076
4.784053746837328
4.785245895727217
4.786481960738532
4.787840152127427
4.789405718457851
4.791275405044366
4.793561941018473
4.796398240705458
4.799940393860296
4.804367564294593
4.809874311660163
4.816645669098012
4.824792607395798
4.834192614960868
4.844106201768091
4.852039551954286
4.855271148553125
6.6774730754910205
6.67876230515331
6.682247074321669
6.686966963749286
6.691996020262528
6.696725111655632
6.700903269079879
6.704470946010821
6.7074619075251505
6.709950059585723
6.712022621854554
6.713767360526528
6.715267370270412
6.716599867802889
6.717837061011107
6.71904810589848
6.720301624710773
6.7216684592364615
6.723224448854397
6.725052986687471
6.727246954804324
6.729909330477744
6.7331510563962205
6.737083718568767
6.741802189677371
6.747348470664126
6.753640540876152
6.760340965089164
6.766634432728331
6.7712828595707455
6.773002902911786
8.619699966793776
8.620485919847955
8.622661029133406
8.6257763496941
8.629312219032057
8.632853983096288
8.636148285365348
8.639080623122497
8.641624299363208
8.643801887283994
8.645660815996518
8.647259181268943
8.648658211484575
8.6499188354984
8.651100665495248
8.652262385246534
8.653462909571939
8.654762856064396
8.656225976237737
8.657920152982577
8.659917418837995
8.662292165714122
8.665116133960934
8.668448055954242
8.672314442886542
8.67667670076679
8.681379554748773
8.68608267297141
8.690230735150068
8.693128584685805
8.694175958776801
10.559522028247034
10.560023248664155
10.561436608418788
10.563526843217803
10.565999815938518
10.568586803393591
10.571092816899926
10.573403431510526
10.575469066994483
10.577283822358687
10.57886827156687
10.580257547084667
10.581493940616898
10.582622783914324
10.5836904951521
10.584743992736888
10.585830896164731
10.587000042771674
10.588301927754895
10.589788637823277
10.59151272974751
10.593524308203456
10.59586519427608
10.598558814543338
10.601594075653722
10.604902167529426
10.608328218587673
10.61161014240013
10.614387780567943
10.616267374308812
10.6169341658059
12.497433868352257
12.497757339206565
12.498679619554007
12.500072274124726
12.501765635851296
12.503591988666471
12.505415941905628
12.507146293776092
12.50873354105352
12.510160602963243
12.511432668971347
12.512568845832558
12.513596256354969
12.51454631866775
12.515452645363666
12.516350047355811
12.517274202379369
12.518261589481495
12.519349338396115
12.520574613536724
12.521973077210532
12.523575876010154
12.525404435453318
12.527462415108502
12.52972439742417
12.53212216680968
12.534532263875256
12.536772539976013
12.538618006149141
12.539841345718118
12.540270599432485
14.433678327165326
14.433878659745318
14.43445409179558
14.435335174223663
14.436426990408373
14.437630856358973
14.438861693301519
14.440057150781042
14.441179064641483
14.442210045125428
14.44314831129099
14.444002687266916
14.444788658686996
14.44552564629949
14.44623529803283
14.4469405272542
14.447665018565651
14.44843291990364
14.449268463287147
14.4501952368937
14.451234793672649
14.45240425012701
14.453712495280907
14.455154821815409
14.456706142047798
14.458313981351644
14.459893884511152
14.46133128135434
14.462493670930083
14.463253783835043
14.463518568579298
16.36837125263986
16.36847688129138
16.368782047176857
16.369254567737876
16.36984949746144
16.370518585855123
16.37121841613535
16.371915339669414
16.372587047846057
16.373221666418353
16.373815665868598
16.374371534222643
16.374895773376505
16.37539741032108
16.375886988060888
16.376375930548765
16.376876150818575
16.37739975435913
16.37795869963211
16.378564267292013
16.37922617690495
16.37995119077604
16.3807410539042
16.381589772607054
16.382480457211155
16.38338247599767
16.384250229476365
16.385025205966137
16.385642572427894
16.386042021959256
16.386180407343065
18.301566051015065
18.30158983331836
18.301659819123977
18.301772171813514
18.301921239449143
18.302100429254782
18.302303071962513
18.30252309139519
18.302755415056474
18.302996125438433
18.30324243262185
18.303492532504265
18.303745418351465
18.30400068922754
18.304258368495624
18.30451873859338
18.304782191452475
18.305049081504944
18.305319571509866
18.305593459767646
18.30586997942735
18.30614756912864
18.306423617726757
18.306694220349776
18.30695399008699
18.307196017175208
18.307412075960354
18.30759316709496
18.30773041591611
18.307816223244323
18.307845434892343
18.409419760816256
18.40943973897535
18.409498744345488
18.409594133569854
18.40972194011299
18.40987740920247
18.41005555634618
18.410251635781382
18.410461470010226
18.41068161728726
18.410909414480614
18.411142923360075
18.41138082328757
18.411622283090082
18.411866824272792
18.41211418496854
18.412364189179602
18.41261661445832
18.412871054426653
18.413126771232996
18.413382535417938
18.413636458564746
18.41388582589837
18.414126963030967
18.414355167606093
18.414564764794175
18.41474933689915
18.414902159205532
18.415016829990833
18.41508801386764
18.415112157891027
18.517152950989285
18.51717010624012
18.517220916005652
18.517303499825672
18.5174149931893
18.51755188471246
18.51771038377291
18.517886747259926
18.518077532438905
18.51827974869817
18.518490925877785
18.518709107516433
18.518932795099705
18.51916086622544
18.519392475427814
18.51962694713674
18.51986366769669
18.520101973486085
18.52034103565639
18.52057974089714
18.52081656964034
18.52104947956812
18.521275801779076
18.52149217767682
18.521694554893287
18.521878278615244
18.52203830092072
18.522169515763377
18.522267200012898
18.522327502731837
18.522347897304165
18.624770962356624
18.624785981589888
18.62483056134853
18.624903322876374
18.62500213921058
18.625124353405493
18.62526702505339
18.62542715905043
18.62560189578531
18.62578863768703
18.625985121305202
18.626189433296688
18.626399985844465
18.626615467024013
18.626834771314854
18.62705691850634
18.62728096857137
18.627505931682645
18.62773067627242
18.627953837000444
18.628173725933742
18.628388255162413
18.62859487664312
18.628790561184502
18.628971825648563
18.629134830539428
18.62927555616709
18.629390055118897
18.629474762670856
18.629526825034894
18.62954439278091
18.732277748260042
18.73229112833718
18.732330909624423
18.732396051012728
18.73248492884038
18.73259548149809
18.732725377760165
18.732872178111638
18.733033476760227
18.733207002965173
18.733390687490107
18.73358268793404
18.733781382213337
18.73398534066754
18.734193279121023
18.73440399959113
18.734616325957212
18.73482903471569
18.73504078483515
18.735250049707787
18.735455055087545
18.735653730554485
18.735843678310914
18.736022176165193
18.736186217611536
18.736332602695576
18.736458080746512
18.736559539403242
18.736634225127624
18.736679967611398
18.736695375027395
18.839676232910122
18.839688344645364
18.83972440204303
18.83978359549048
18.839864650234126
18.839965924273947
18.840085525370554
18.84022142588266
18.840371568844898
18.840533947479045
18.84070666286414
18.840887951675455
18.841076189702697
18.841269878370532
18.84146761453099
18.84166804876705
18.84186983886443
18.84207159881268
18.842271847643584
18.842468961390868
18.842661131919662
18.842846339091945
18.843022338255917
18.843186676121896
18.84333673409326
18.8434698078455
18.843583220993015
18.843674466777532
18.843741366602025
18.843782226356737
18.843795969416178
18.943310167272138
18.94332126691952
18.94335434456404
18.943408752578236
18.94348346263505
18.94357713328633
18.94368819271895
18.943814921361515
18.943955531522484
18.94410822922779
18.944271262829695
18.944442949838653
18.944621685719174
18.944805939843416
18.944994237495713
18.945185131967534
18.945377172622003
18.945568869147547
18.945758656130124
18.94594486104202
18.94612567890818
18.946299158997153
18.946463204075876
18.946615592567717
18.946754020436703
18.946876168829192
18.946979794041237
18.947062834331167
18.947123525429124
18.94716051145801
18.947172937526226
19.039508375057903
19.03951863042757
19.039549215536773
19.039599598748662
19.039668929670135
19.039756086645813
19.039859736286036
19.039978393553923
19.040110482042817
19.040254381976432
19.04040847065686
19.040571147012827
19.040740842926592
19.04091602528155
19.04109518676401
19.04127682852149
19.041459439793385
19.04164147443091
19.04182132802473
19.041997318326484
19.042167671624103
19.042330519405716
19.042483904788618
19.04262580712663
19.04275418040788
19.042867009936625
19.04296238356102
19.04303857286517
19.043094118513025
19.043127910357732
19.043139253228812
19.128265949963133
19.128275487608764
19.128303948816445
19.128350886507654
19.128415580969165
19.128497073811815
19.128594211532953
19.12870568976079
19.128830099387606
19.128965963961583
19.12911177326928
19.129266005233838
19.129427138248655
19.1295936571177
19.129764050131875
19.129936799673963
19.130110370783317
19.13028319725617
19.130453668506846
19.130620119395612
19.130780825091264
19.130934004453515
19.131077830674982
19.13121045623674
19.131330047214547
19.131434830580016
19.131523150889166
19.131593532671427
19.13164474444055
19.1316758575903
19.131686294070366
19.20959809451906
19.20960701252148
19.209633636441986
19.209677581930872
19.209738226874396
19.20981473609677
19.20990609381581
19.21001113666726
19.210128589502034
19.2102570947481
19.210395240429904
19.21054157952727
19.210694642503313
19.210852945692316
19.211014992806845
19.211179271426772
19.211344248315676
19.211508362824038
19.211670021116813
19.21182759296473
19.21197941264494
19.212123786751818
19.21225900717127
19.21238337530481
19.212495232380263
19.212592999021652
19.212675220773097
19.21274061666494
19.212788128005325
19.21281696247531
19.212826629366532
19.283537972361
19.283546349349805
19.283571366507253
19.28361268680782
19.283669762231543
19.283741852054035
19.283828047492506
19.283927296734163
19.28403843316741
19.284160198711064
19.284291267425413
19.28443026263497
19.284575769243027
19.284726343619525
19.28488051820048
19.28503680226815
19.285193682270076
19.285349620671624
19.285503055639687
19.285652402885447
19.28579606077755
19.285932420989784
19.286059882632646
19.286176875252647
19.28628188554818
19.28637349070503
19.2864503953907
19.286511470126264
19.28655578912718
19.28658266394647
19.28659167004553
19.35013392014707
19.350141821738827
19.350165425143445
19.350204429600556
19.35025834420221
19.350326501693743
19.350408077576756
19.35050210940686
19.3506075194727
19.350723133613343
19.35084770138196
19.350979911286856
19.35111840270903
19.351261776670132
19.351408602557793
19.35155742198713
19.351706752756396
19.351855091685486
19.352000918259353
19.35214270006111
19.352278900759693
19.352407992502073
19.352528470482863
19.352638874553627
19.352737812844357
19.352823990136653
19.352896238355243
19.352953547392623
19.352995095006726
19.353020273003207
19.353028707689386
19.409446528474827
19.409454011883856
19.409476370375398
19.40951333135529
19.40956444851577
19.409629112464575
19.409706565862983
19.40979591859651
19.409896166369027
19.41000620615483
19.410124853688618
19.4102508571645
19.4103829086948
19.41051965555411
19.410659708338287
19.410801647001254
19.41094402740321
19.41108538700783
19.41122425134086
19.411359141919903
19.411488586151442
19.41161113072913
19.411725356216174
19.411829897276345
19.411923463702795
19.41200486487343
19.41207303528858
19.412127059786307
19.412166197638214
19.412189903355575
19.412197842779367
19.461544192905944
19.461551310237535
19.461572578035447
19.461607745796847
19.46165640236978
19.461717984327134
19.46179178825072
19.461876982920288
19.461972624895914
19.462077671466183
19.462190996075933
19.462311400783772
19.46243762726447
19.46256836827
19.46270227673103
19.46283797329997
19.462974054709395
19.463109101477688
19.463241686325972
19.463370383801433
19.46349378140026
19.46361049348359
19.463719175636424
19.463818543624324
19.46390739228972
19.46398461693385
19.46404923508306
19.464100407523887
19.464137458137877
19.46415989080599
19.464167402358232
19.506500163243754
19.506506963799126
19.50652728719328
19.506560900323795
19.506607419853633
19.50666631897527
19.506736937634322
19.50681849256178
19.506910090636417
19.507010739975613
19.507119363782415
19.50723481181693
19.50735587097793
19.50748127682061
19.507609723256447
19.507739871116758
19.507870357745823
19.507999806086445
19.50812683442672
19.508250067139606
19.508368146557622
19.50847974709533
19.508583589270778
19.508678457536206
19.50876321744837
19.508836834656037
19.508898393802642
19.508947116444986
19.508982377750918
19.509003720560408
19.50901086606335
19.54438761847351
19.54439415032
19.544413672227424
19.54444596474565
19.544490666446062
19.544547279537536
19.544615178604467
19.544693619083997
19.544781748998602
19.544878618678723
19.544983193408896
19.545094364127934
19.54521095764204
19.545331748106914
19.545455467090903
19.54558081281175
19.5457064605499
19.545831072658682
19.54595330918956
19.54607183934241
19.546185353773186
19.546292578736608
19.546392289735547
19.54648332839413
19.54656461825523
19.54663518192287
19.54669415780521
19.54674081572036
19.546774571289834
19.546794997929705
19.546801835884924
19.575276518105454
19.575282829075544
19.575301691930783
19.575332897762724
19.575376102114344
19.575430829784487
19.575496482505084
19.575572346309162
19.57565760208162
19.57575133428778
19.575852542722792
19.575960152621345
19.576073024563716
19.576189965877003
19.57630974090587
19.57643108067996
19.576552693854886
19.576673277323895
19.57679152740516
19.576906151725858
19.577015881757376
19.577119486880353
19.577215787679222
19.577303672032755
19.5773821098468
19.577450168801533
19.577507029490672
19.57755199933277
19.577584525291044
19.577604204372413
19.577610791483448
19.599229606354584
19.599235744614237
19.599254092000493
19.599284447460843
19.599326479218643
19.599379729017546
19.59944361906025
19.599517458605465
19.599600453685454
19.599691715133048
19.599790269682735
19.599895069645644
19.60000500257339
19.600118902567424
19.600235560658817
19.600353734740345
19.600472160833906
19.600589564078962
19.60070467026489
19.60081621796659
19.600922971183586
19.601023733290862
19.60111736003022
19.601202774994043
19.60127898356541
19.60134508764662
19.60140029964488
19.60144395517755
19.601475524609604
19.601494622504678
19.60150101465703
19.616299132659766
19.616305146949614
19.616323124270433
19.616352869015937
19.616394058217153
19.616446245422008
19.616508867148937
19.616581248978843
19.61666261471973
19.616752093968753
19.616848732774987
19.616951503015983
19.617059311887672
19.617171013132733
19.617285417472363
19.617401302691043
19.617517425094533
19.617632530720524
19.617745367070867
19.61785469538281
19.61795930330566
19.618058018743177
19.618149722614913
19.618233363908466
19.618307973071722
19.618372676047336
19.618426707481458
19.61846942262348
19.618500308077746
19.618518990561615
19.618525243394203
19.626524552244714
19.6265304918783
19.62654824631536
19.626577623156393
19.626618304625058
19.626669851241914
19.62673170800313
19.626803210186363
19.626883592200116
19.626971994880066
19.627067475898585
19.62716901896688
19.62727554321986
19.627385914390608
19.62749895526275
19.62761345583335
19.627728184868293
19.627841901228578
19.627953365704027
19.628061353349427
19.628164666169273
19.628262146885127
19.628352691553864
19.628435264361908
19.628508910695775
19.6285727707731
19.62862609240319
19.6286682424245
19.628698717007268
19.628717150016556
19.62872331919223
19.629930254453107
19.62993616915246
19.629953849145167
19.629983103090943
19.630023614929765
19.630074947489035
19.6301365485732
19.63020775667717
19.63028780973294
19.630375852319855
19.630470945991025
19.630572078418083
19.630678172741128
19.63078809872418
19.630900683212793
19.63101472032071
19.631128983015074
19.631242234478183
19.63135323997226
19.631460779194292
19.631563658961376
19.631660726951147
19.63175088427191
19.63183310017068
19.631906424997702
19.63197000370534
19.632023088461885
19.632065049938436
19.632095387465476
19.632113737267503
19.632119878542937
