# vtk DataFile Version 2.0
Unstructured Grid Example
ASCII
DATASET UNSTRUCTURED_GRID

POINTS 961 float
0.400000004 0.01999999956 0
0.3866666556 0.01999999956 0
0.3733333348 0.01999999956 0
0.3600000144 0.01999999956 0
0.346666664 0.01999999956 0
0.3333333432 0.01999999956 0
0.3199999928 0.01999999956 0
0.3066666724 0.01999999956 0
0.293333322 0.01999999956 0
0.2800000012 0.01999999956 0
0.2666666804 0.01999999956 0
0.25333333 0.01999999956 0
0.2399999948 0.01999999956 0
0.226666674 0.01999999956 0
0.2133333384 0.01999999956 0
0.2000000028 0.01999999956 0
0.1866666676 0.01999999956 0
0.173333332 0.01999999956 0
0.1599999964 0.01999999956 0
0.1466666608 0.01999999956 0
0.1333333404 0.01999999956 0
0.1199999972 0.01999999956 0
0.1066666692 0.01999999956 0
0.0933333336 0.01999999956 0
0.0799999984 0.01999999956 0
0.06666667 0.01999999956 0
0.0533333348 0.01999999956 0
0.03999999912 0.01999999956 0
0.02666666732 0.01999999956 0
0.01333333364 0.01999999956 0
0.0 0.01999999956 0
0.400000004 0.00666666684 0
0.3866666556 0.00666666684 0
0.3733333348 0.00666666684 0
0.3600000144 0.00666666684 0
0.346666664 0.00666666684 0
0.3333333432 0.00666666684 0
0.3199999928 0.00666666684 0
0.3066666724 0.00666666684 0
0.293333322 0.00666666684 0
0.2800000012 0.00666666684 0
0.2666666804 0.00666666684 0
0.25333333 0.00666666684 0
0.2399999948 0.00666666684 0
0.226666674 0.00666666684 0
0.2133333384 0.00666666684 0
0.2000000028 0.00666666684 0
0.1866666676 0.00666666684 0
0.173333332 0.00666666684 0
0.1599999964 0.00666666684 0
0.1466666608 0.00666666684 0
0.1333333404 0.00666666684 0
0.1199999972 0.00666666684 0
0.1066666692 0.00666666684 0
0.0933333336 0.00666666684 0
0.0799999984 0.00666666684 0
0.06666667 0.00666666684 0
0.0533333348 0.00666666684 0
0.03999999912 0.00666666684 0
0.02666666732 0.00666666684 0
0.01333333364 0.00666666684 0
0.0 0.00666666684 0
0.400000004 -0.00666666684 0
0.3866666556 -0.00666666684 0
0.3733333348 -0.00666666684 0
0.3600000144 -0.00666666684 0
0.346666664 -0.00666666684 0
0.3333333432 -0.00666666684 0
0.3199999928 -0.00666666684 0
0.3066666724 -0.00666666684 0
0.293333322 -0.00666666684 0
0.2800000012 -0.00666666684 0
0.2666666804 -0.00666666684 0
0.25333333 -0.00666666684 0
0.2399999948 -0.00666666684 0
0.226666674 -0.00666666684 0
0.2133333384 -0.00666666684 0
0.2000000028 -0.00666666684 0
0.1866666676 -0.00666666684 0
0.173333332 -0.00666666684 0
0.1599999964 -0.00666666684 0
0.1466666608 -0.00666666684 0
0.1333333404 -0.00666666684 0
0.1199999972 -0.00666666684 0
0.1066666692 -0.00666666684 0
0.0933333336 -0.00666666684 0
0.0799999984 -0.00666666684 0
0.06666667 -0.00666666684 0
0.0533333348 -0.00666666684 0
0.03999999912 -0.00666666684 0
0.02666666732 -0.00666666684 0
0.01333333364 -0.00666666684 0
0.0 -0.00666666684 0
0.400000004 -0.01999999956 0
0.3866666556 -0.01999999956 0
0.3733333348 -0.01999999956 0
0.3600000144 -0.01999999956 0
0.346666664 -0.01999999956 0
0.3333333432 -0.01999999956 0
0.3199999928 -0.01999999956 0
0.3066666724 -0.01999999956 0
0.293333322 -0.01999999956 0
0.2800000012 -0.01999999956 0
0.2666666804 -0.01999999956 0
0.25333333 -0.01999999956 0
0.2399999948 -0.01999999956 0
0.226666674 -0.01999999956 0
0.2133333384 -0.01999999956 0
0.2000000028 -0.01999999956 0
0.1866666676 -0.01999999956 0
0.173333332 -0.01999999956 0
0.1599999964 -0.01999999956 0
0.1466666608 -0.01999999956 0
0.1333333404 -0.01999999956 0
0.1199999972 -0.01999999956 0
0.1066666692 -0.01999999956 0
0.0933333336 -0.01999999956 0
0.0799999984 -0.01999999956 0
0.06666667 -0.01999999956 0
0.0533333348 -0.01999999956 0
0.03999999912 -0.01999999956 0
0.02666666732 -0.01999999956 0
0.01333333364 -0.01999999956 0
0.0 -0.01999999956 0
0.400000004 -0.03333333508 0
0.3866666556 -0.03333333508 0
0.3733333348 -0.03333333508 0
0.3600000144 -0.03333333508 0
0.346666664 -0.03333333508 0
0.3333333432 -0.03333333508 0
0.3199999928 -0.03333333508 0
0.3066666724 -0.03333333508 0
0.293333322 -0.03333333508 0
0.2800000012 -0.03333333508 0
0.2666666804 -0.03333333508 0
0.25333333 -0.03333333508 0
0.2399999948 -0.03333333508 0
0.226666674 -0.03333333508 0
0.2133333384 -0.03333333508 0
0.2000000028 -0.03333333508 0
0.1866666676 -0.03333333508 0
0.173333332 -0.03333333508 0
0.1599999964 -0.03333333508 0
0.1466666608 -0.03333333508 0
0.1333333404 -0.03333333508 0
0.1199999972 -0.03333333508 0
0.1066666692 -0.03333333508 0
0.0933333336 -0.03333333508 0
0.0799999984 -0.03333333508 0
0.06666667 -0.03333333508 0
0.0533333348 -0.03333333508 0
0.03999999912 -0.03333333508 0
0.02666666732 -0.03333333508 0
0.01333333364 -0.03333333508 0
0.0 -0.03333333508 0
0.400000004 -0.0466666668 0
0.3866666556 -0.0466666668 0
0.3733333348 -0.0466666668 0
0.3600000144 -0.0466666668 0
0.346666664 -0.0466666668 0
0.3333333432 -0.0466666668 0
0.3199999928 -0.0466666668 0
0.3066666724 -0.0466666668 0
0.293333322 -0.0466666668 0
0.2800000012 -0.0466666668 0
0.2666666804 -0.0466666668 0
0.25333333 -0.0466666668 0
0.2399999948 -0.0466666668 0
0.226666674 -0.0466666668 0
0.2133333384 -0.0466666668 0
0.2000000028 -0.0466666668 0
0.1866666676 -0.0466666668 0
0.173333332 -0.0466666668 0
0.1599999964 -0.0466666668 0
0.1466666608 -0.0466666668 0
0.1333333404 -0.0466666668 0
0.1199999972 -0.0466666668 0
0.1066666692 -0.0466666668 0
0.0933333336 -0.0466666668 0
0.0799999984 -0.0466666668 0
0.06666667 -0.0466666668 0
0.0533333348 -0.0466666668 0
0.03999999912 -0.0466666668 0
0.02666666732 -0.0466666668 0
0.01333333364 -0.0466666668 0
0.0 -0.0466666668 0
0.400000004 -0.0599999988 0
0.3866666556 -0.0599999988 0
0.3733333348 -0.0599999988 0
0.3600000144 -0.0599999988 0
0.346666664 -0.0599999988 0
0.3333333432 -0.0599999988 0
0.3199999928 -0.0599999988 0
0.3066666724 -0.0599999988 0
0.293333322 -0.0599999988 0
0.2800000012 -0.0599999988 0
0.2666666804 -0.0599999988 0
0.25333333 -0.0599999988 0
0.2399999948 -0.0599999988 0
0.226666674 -0.0599999988 0
0.2133333384 -0.0599999988 0
0.2000000028 -0.0599999988 0
0.1866666676 -0.0599999988 0
0.173333332 -0.0599999988 0
0.1599999964 -0.0599999988 0
0.1466666608 -0.0599999988 0
0.1333333404 -0.0599999988 0
0.1199999972 -0.0599999988 0
0.1066666692 -0.0599999988 0
0.0933333336 -0.0599999988 0
0.0799999984 -0.0599999988 0
0.06666667 -0.0599999988 0
0.0533333348 -0.0599999988 0
0.03999999912 -0.0599999988 0
0.02666666732 -0.0599999988 0
0.01333333364 -0.0599999988 0
0.0 -0.0599999988 0
0.400000004 -0.0733333304 0
0.3866666556 -0.0733333304 0
0.3733333348 -0.0733333304 0
0.3600000144 -0.0733333304 0
0.346666664 -0.0733333304 0
0.3333333432 -0.0733333304 0
0.3199999928 -0.0733333304 0
0.3066666724 -0.0733333304 0
0.293333322 -0.0733333304 0
0.2800000012 -0.0733333304 0
0.2666666804 -0.0733333304 0
0.25333333 -0.0733333304 0
0.2399999948 -0.0733333304 0
0.226666674 -0.0733333304 0
0.2133333384 -0.0733333304 0
0.2000000028 -0.0733333304 0
0.1866666676 -0.0733333304 0
0.173333332 -0.0733333304 0
0.1599999964 -0.0733333304 0
0.1466666608 -0.0733333304 0
0.1333333404 -0.0733333304 0
0.1199999972 -0.0733333304 0
0.1066666692 -0.0733333304 0
0.0933333336 -0.0733333304 0
0.0799999984 -0.0733333304 0
0.06666667 -0.0733333304 0
0.0533333348 -0.0733333304 0
0.03999999912 -0.0733333304 0
0.02666666732 -0.0733333304 0
0.01333333364 -0.0733333304 0
0.0 -0.0733333304 0
0.400000004 -0.086666666 0
0.3866666556 -0.086666666 0
0.3733333348 -0.086666666 0
0.3600000144 -0.086666666 0
0.346666664 -0.086666666 0
0.3333333432 -0.086666666 0
0.3199999928 -0.086666666 0
0.3066666724 -0.086666666 0
0.293333322 -0.086666666 0
0.2800000012 -0.086666666 0
0.2666666804 -0.086666666 0
0.25333333 -0.086666666 0
0.2399999948 -0.086666666 0
0.226666674 -0.086666666 0
0.2133333384 -0.086666666 0
0.2000000028 -0.086666666 0
0.1866666676 -0.086666666 0
0.173333332 -0.086666666 0
0.1599999964 -0.086666666 0
0.1466666608 -0.086666666 0
0.1333333404 -0.086666666 0
0.1199999972 -0.086666666 0
0.1066666692 -0.086666666 0
0.0933333336 -0.086666666 0
0.0799999984 -0.086666666 0
0.06666667 -0.086666666 0
0.0533333348 -0.086666666 0
0.03999999912 -0.086666666 0
0.02666666732 -0.086666666 0
0.01333333364 -0.086666666 0
0.0 -0.086666666 0
0.400000004 -0.1000000016 0
0.3866666556 -0.1000000016 0
0.3733333348 -0.1000000016 0
0.3600000144 -0.1000000016 0
0.346666664 -0.1000000016 0
0.3333333432 -0.1000000016 0
0.3199999928 -0.1000000016 0
0.3066666724 -0.1000000016 0
0.293333322 -0.1000000016 0
0.2800000012 -0.1000000016 0
0.2666666804 -0.1000000016 0
0.25333333 -0.1000000016 0
0.2399999948 -0.1000000016 0
0.226666674 -0.1000000016 0
0.2133333384 -0.1000000016 0
0.2000000028 -0.1000000016 0
0.1866666676 -0.1000000016 0
0.173333332 -0.1000000016 0
0.1599999964 -0.1000000016 0
0.1466666608 -0.1000000016 0
0.1333333404 -0.1000000016 0
0.1199999972 -0.1000000016 0
0.1066666692 -0.1000000016 0
0.0933333336 -0.1000000016 0
0.0799999984 -0.1000000016 0
0.06666667 -0.1000000016 0
0.0533333348 -0.1000000016 0
0.03999999912 -0.1000000016 0
0.02666666732 -0.1000000016 0
0.01333333364 -0.1000000016 0
0.0 -0.1000000016 0
0.400000004 -0.1133333372 0
0.3866666556 -0.1133333372 0
0.3733333348 -0.1133333372 0
0.3600000144 -0.1133333372 0
0.346666664 -0.1133333372 0
0.3333333432 -0.1133333372 0
0.3199999928 -0.1133333372 0
0.3066666724 -0.1133333372 0
0.293333322 -0.1133333372 0
0.2800000012 -0.1133333372 0
0.2666666804 -0.1133333372 0
0.25333333 -0.1133333372 0
0.2399999948 -0.1133333372 0
0.226666674 -0.1133333372 0
0.2133333384 -0.1133333372 0
0.2000000028 -0.1133333372 0
0.1866666676 -0.1133333372 0
0.173333332 -0.1133333372 0
0.1599999964 -0.1133333372 0
0.1466666608 -0.1133333372 0
0.1333333404 -0.1133333372 0
0.1199999972 -0.1133333372 0
0.1066666692 -0.1133333372 0
0.0933333336 -0.1133333372 0
0.0799999984 -0.1133333372 0
0.06666667 -0.1133333372 0
0.0533333348 -0.1133333372 0
0.03999999912 -0.1133333372 0
0.02666666732 -0.1133333372 0
0.01333333364 -0.1133333372 0
0.0 -0.1133333372 0
0.400000004 -0.1266666652 0
0.3866666556 -0.1266666652 0
0.3733333348 -0.1266666652 0
[...]
POINT_DATA 961
SCALARS Temp float 1
LOOKUP_TABLE default
0.7399558176019746
0.7695099300164339
0.7907191268328388
0.8061404081082155
0.8174398232940161
0.82575982064076
0.8319137526581234
0.836487039515682
0.8399057737136602
0.8424821580011884
0.8444476634959632
0.845976021646103
0.8471999992841992
0.8482244541150212
0.8491360759609968
0.8500111143615988
0.8509224549064807
0.8519461242362227
0.8531681239134461
0.8546922484941318
0.8566496067588023
0.8592111568525481
0.8626036847934538
0.8671325071685556
0.8732119498737902
0.8814086028080945
0.8925029450856097
0.9075795013582276
0.9281641679741597
0.9564714598120576
0.9960141610503699
0.7810087038672777
0.8099885922312592
0.8309699905533787
0.846306862517707
0.8575674827927203
0.8658715589468154
0.8720207002806545
0.876594737887471
0.8800168437043859
0.882597700748297
0.8845679997908196
0.886101105100377
0.8873296534846349
0.8883584996849178
0.8892744011753043
0.8901537167121992
0.8910694562603166
0.8920977701768753
0.8933247643949114
0.8948542910589135
0.896817426285318
0.8993849221067406
0.9027830591871759
0.9073160960297918
0.9133963100031444
0.9215863887122454
0.9326593130184956
0.9476841083257206
0.9681544010655407
0.9961730871760086
1.034786035996595
2.703065852317206
2.7073713393504817
2.7193708612526613
2.730438178261344
2.739590136002317
2.7468718956852074
2.752573531940215
2.7570081946319895
2.760453649739833
2.763140432169638
2.7652550523318595
2.7669474676482944
2.768339180117599
2.769530809964409
2.770608835803244
2.771651621390385
2.7727350207038697
2.773937875048665
2.775347699204416
2.7770669099491245
2.7792199447347263
2.7819615062107874
2.7854860747630457
2.790038315187176
2.7959227525589636
2.8035077561420936
2.813209565686675
2.8254138681753793
2.840180069995325
2.8561862461839866
2.8619326309199122
4.601168035132467
4.60351766981358
4.609284626490414
4.616490762930206
4.623323461438643
4.629247498640359
4.634175893420536
4.638191529698837
4.641431495617104
4.644040269221656
4.6461518700219395
4.647884525828395
4.649340898977495
4.650610704652966
4.651774258722666
4.652906368401376
4.6540803605752625
4.655372188453834
4.656864649521401
4.658651725992223
4.660842955310097
4.663567526204771
4.666977203388303
4.671246255177487
4.676564031321766
4.683110804672453
4.690995157469976
4.700099244655394
4.709706488315554
4.717397286418649
4.72053074178382
6.493662773815444
6.494913291485879
6.49829295592194
6.502869034726584
6.507742397149356
6.512321730613607
6.516363645195719
6.519810655007205
6.522695857734989
6.525091284496048
6.527081845791476
6.528752938096684
6.530185383996875
6.531454268415574
6.53262979063885
6.533779172702976
6.534969112513338
6.536268465830943
6.537750953083386
6.539497652041046
6.541598889498949
6.544154844897207
6.5472735007922225
6.551063554597033
6.55561759094311
6.5609770001554635
6.567062920216453
6.573548675358459
6.579643758870426
6.5841471990387905
6.5858138430002064
8.382772909118184
8.383534638343015
8.38564236343661
8.388660153425471
8.392083469386062
8.395509829301716
8.398693448712978
8.401523410094914
8.403974057409837
8.40606755730058
8.407850183657072
8.409378538580077
8.410712239678439
8.411910592019506
8.413031606264438
8.414132382099254
8.415270240683125
8.416504161000882
8.417896177618738
8.419512358477382
8.421422833451212
8.423700068449712
8.426414014665406
8.429622068558464
8.433350433251274
8.437562203904534
8.442107297109573
8.446656050112324
8.450670109061809
8.45347529152474
8.454489341044164
10.269603502802056
10.270088721172632
10.271456704491055
10.273479051687536
10.27587024266572
10.27836949013049
10.280787652867025
10.28301384894177
10.285000172030072
10.286741124515832
10.288256903104305
10.289581824712052
10.290757142165003
10.291827046651465
10.292836774438166
10.293832042270479
10.294859247337666
10.295965974720914
10.297201431061007
10.298616387460752
10.300262099020456
10.302187476875606
10.304433436680908
10.307023091594937
10.309946104612024
10.313136170493333
10.316443490173569
10.319614210849833
10.322299256601788
10.324116852126538
10.324761762486592
12.15464145303332
12.15495407095003
12.155845205474119
12.157190199594655
12.158824400830055
12.160585093158687
12.162340985648656
12.164003722144761
12.165525451095311
12.166889808513782
12.168102052887896
12.169180950885835
12.170153046305554
12.171049047714657
12.171901790382508
12.172745271795772
12.173614332869857
12.174544598122571
12.175572333775008
12.17673385463055
12.178064037629488
12.179593401874971
12.181343061189857
12.183316918524614
12.185490687373088
12.187798568734229
12.190121158228422
12.192282079966665
12.194063339130382
12.195244608460781
12.195659184245837
14.038128380311914
14.03832143669711
14.038875799623767
14.03972408850905
14.040774230567282
14.04193053055199
14.043110535557538
14.04425388761725
14.045323731965368
14.046303397736793
14.047191376745419
14.04799646160431
14.048733914902162
14.049422821090218
14.050084428361663
14.050741215800018
14.051416414684152
14.052133711227551
14.052916880411555
14.053789081665483
14.054771510757476
14.055881071248105
14.057126696786293
14.058504140121205
14.059989386648065
14.06153184811652
14.063049893659898
14.06443264505807
14.065551782616428
14.066284004369397
14.066539139773745
15.92018181831634
15.920282925530529
15.920574884051625
15.92102649565853
15.921594202701895
15.922231270445021
15.922895686935714
15.92355495090638
15.924187593591393
15.924782295529665
15.92533585366309
15.925850918918051
15.926334048662552
15.926794259325026
15.92724204543662
15.92768876225868
15.928146244497578
15.928626517818811
15.929141468898873
15.929702329889668
15.930318820784711
15.930997793666648
15.93174123258068
15.932543610244359
15.93338882079092
15.934247412562248
15.935075391365283
15.935816206263887
15.936407135339824
15.936789802375067
15.936922428301205
17.800857913486915
17.8008795535168
17.80094316748093
17.801045076329924
17.801179868589692
17.80134124867738
17.801522874753324
17.801719007526142
17.80192490681535
17.802136976730182
17.802352736573013
17.802570680997324
17.80279009480661
17.803010864282925
17.803233298464434
17.8034579662923
17.803685548611163
17.803916692758687
17.804151860097793
17.804391155405398
17.80463412913402
17.804879551615116
17.805125162388713
17.805367429945402
17.80560136577456
17.8058204812589
17.80601698505072
17.80618230592302
17.806307961424313
17.806386671933797
17.80641349348657
17.90578764274408
17.905805581587156
17.90585851145388
17.905943911935523
17.906058008069735
17.90619628899845
17.906354048921965
17.9065268406918
17.906710793763054
17.906902775168525
17.907100428698406
17.90730212058349
17.907506833063263
17.907714037267155
17.90792355783354
17.90813543829099
17.908349811223374
17.908566766982617
17.908786217290647
17.909007748987353
17.909230465514018
17.909452821162734
17.909672455577166
17.909886060843625
17.910089311944418
17.910276917187772
17.910442837721966
17.91058070742524
17.91068444143144
17.910748955090988
17.91077085707766
18.01060764664076
18.01062282200197
18.01066772678492
18.010740581842413
18.01083868310448
18.010958728231426
18.011097172254534
18.01125054362822
18.011415687778168
18.011589912834534
18.011771053555776
18.011957462606247
18.012147954159015
18.01234172166841
18.012538238932365
18.012737153548215
18.012938179078816
18.013140983482653
18.01334507414809
18.013549678974094
18.013753624918806
18.013955221466567
18.014152156703666
18.0143414323885
18.01451935674326
18.01468162966641
18.014823542646635
18.01494030089783
18.01502744866216
18.015081341792115
18.015099584838815
18.1153231611372
18.115336224743416
18.11537496747279
18.11543809831954
18.115523631020896
18.115629095216253
18.115751774493123
18.11588892731685
18.116037969724943
18.116196596604247
18.116362849240573
18.116535128653513
18.11671216942515
18.11689298866984
18.117076815840765
18.117263011283036
18.117450980471187
18.11764008356816
18.11782954295554
18.118018350566967
18.118205178286704
18.11838829921498
18.118565525995486
18.118734186609665
18.118891147433345
18.119032904468497
18.119155751048456
18.11925601992237
18.119330381841312
18.11937616193747
18.119391622862548
18.219938102467186
18.219949521196543
18.219983445336734
18.22003891322009
18.220114429753135
18.220208106086904
18.22031782172365
18.220441379957933
18.22057664376359
18.22072163256998
18.220874584302383
18.221033977748675
18.221198523873728
18.221367135816273
18.221538880502788
18.221712918270956
18.221888437172755
18.222064582532642
18.22224038548521
18.222414693425158
18.222586106205483
18.222752925219048
18.222913119657548
18.22306432541872
18.22320388051579
18.223328909653663
18.223436459388715
18.223523678572136
18.22358802964799
18.22362750423698
18.223640810996166
18.324455415676063
18.32446553352239
18.324495634460884
18.32454498359221
18.324612427902125
18.324696490554757
18.324795483122085
18.324907615854585
18.325031098617973
18.32516421644908
18.325305382997207
18.325453165170607
18.325606284131123
18.325763599194296
18.325924075594443
18.32608674109098
18.326250637426032
18.326414767455905
18.326578041957436
18.326739229321383
18.32689691183515
18.32704945464141
18.32719498993425
18.327331428145143
18.327456496299057
18.327567811428516
18.32766298733745
18.32773976894269
18.327796183284686
18.32783068893402
18.327842303359976
18.425518819311097
18.42552788954778
18.42555490314204
18.42559928431474
18.425660122368555
18.425736236525317
18.42582625485948
18.425928693246085
18.42604203057098
18.426164767093752
18.42629546902703
18.4264327922518
18.42657548838202
18.426722397744257
18.426872428921172
18.427024528662937
18.427177647400168
18.42733070106032
18.427482533005733
18.427631879125173
18.42777733931034
18.42791736031141
18.428050231155915
18.428174100204906
18.428287011897204
18.428386968365846
18.42847201300487
18.428540330790188
18.42859035738335
18.428620884352057
18.42863114723937
18.519748178074764
18.51975638866089
18.519780862780284
18.519821138321657
18.51987647909291
18.519945920154633
18.520028324188182
18.520122438575044
18.520226951789738
18.520340538321754
18.520461895305207
18.520589763997954
18.52072293828026
18.52086026350999
18.521000624563904
18.5211429259543
18.521286068500373
18.521428922972508
18.521570304123063
18.52170894773607
18.52184349334644
18.521972476636513
18.522094331682425
18.522207410233662
18.52231001493339
18.522400450158102
18.522477087270108
18.522538439963718
18.522583243999563
18.522610532449967
18.522619697701955
18.607111711573292
18.607119209140482
18.607141572725574
18.607178422627612
18.607229150058615
18.60729294934593
18.607368858809053
18.607455802473503
18.607552632742234
18.60765816503564
18.607771207764323
18.607890581245965
18.60801512718811
18.60814371131918
18.60827521751325
18.60840853560655
18.608542546713732
18.6086761061355
18.608808026789646
18.608937065332874
18.6090619130501
18.609181194695182
18.6092934747495
18.609397276954912
18.609491113486367
18.609573526613183
18.609643139775983
18.60969871463048
18.609739210034412
18.609763836672933
18.609772101463086
18.687580784997937
18.68758768637608
18.687608282288423
18.68764225358719
18.687689085674684
18.687748091738673
18.687818442873976
18.687899198934858
18.687989341209025
18.68808779929877
18.688193475732664
18.688305262454143
18.6884220505272
18.68854273517489
18.688666214230707
18.68879138168573
18.688917119571336
18.689042287960124
18.68916571554442
18.68928619250686
18.68940246725478
18.68951324953928
18.689617218954808
18.68971304374073
18.68979940605581
18.68987503612031
18.68993875244644
18.689989505461117
18.69002642172113
18.690048844176367
18.690056364506162
18.76112977160168
18.761136171820244
18.76115527975012
18.76118682127391
18.76123035222478
18.761285275424804
18.76135086326685
18.76142628084815
18.761510611357252
18.761602877151784
18.76170206015591
18.76180711623755
18.761916984765094
18.762030595163935
18.762146868424303
18.762264714862745
18.762383030909177
18.7625006944387
18.762616560683345
18.762729460039285
18.762838198919937
18.76294156565904
18.763038340158243
18.763127311532564
18.763207299924233
18.76327718462765
18.763335936076132
18.76338264960488
18.76341657907207
18.763437167007922
18.763444068562976
18.827735913307517
18.82774189124594
18.82775974395191
18.827789231146934
18.827829961854917
18.82788140711569
18.82794291723843
18.828013739424428
18.828093037838446
18.82817991037144
18.82827340577712
18.828372536299735
18.82847628692248
18.828583622864933
18.828693493233708
18.828804831848483
18.82891655763747
18.829027573910643
18.829136768185894
18.82924301355093
18.829345172374524
18.829442103975374
18.82953267475798
18.829615774586365
18.82969033566186
18.829755355904947
18.829809924701443
18.829853249405936
18.82988468131503
18.82990373862655
18.82991012449007
18.887379572787193
18.887385195228187
18.887401990226195
18.88742974314763
18.8874681035111
18.887516594658305
18.887574627217898
18.88764151278009
18.8877164800873
18.8877986886031
18.887887243152946
18.887981205144694
18.888079601462422
18.888181432530793
18.888285677454583
18.88839129704841
18.888497236850192
18.888602429265067
18.888705796221135
18.88880625305218
18.888902714159812
18.888994101762677
18.889079356137778
18.889157450766778
18.88922740879374
18.889288322707035
18.889339375374327
18.889379861190097
18.889409206498797
18.889426987402853
18.889432943627586
18.940043331344725
18.94004865593539
18.94006456406417
18.940090860643387
18.940127226183186
18.940173224310836
18.940228312527125
18.94029185304654
18.940363126155148
18.940441341425288
18.94052565046198
18.940615157014705
18.940708925526778
18.94080598952612
18.940905357787766
18.941006018930196
18.94110694630175
18.941207102185903
18.941305442471794
18.941400922297106
18.941492503017
18.94157916158087
18.941659900669276
18.941733762735367
18.94179984450833
18.94185731381323
18.94190542705934
18.94194354643277
18.941971156277134
18.941987877190485
18.941993476898862
18.985712816814335
18.98571789425806
18.98573306603761
18.985758151986516
18.98579285636158
18.98583677383659
18.985889398321202
18.985950131766824
18.986018295460504
18.986093139512775
18.986173854178503
18.98625957910903
18.98634941159353
18.98644241512414
18.986537626251522
18.986634060280824
18.986730717479087
18.986826588738708
18.98692066166098
18.987011927407657
18.987099388526104
18.98718206866196
18.987259022490285
18.987329348806735
18.987392203479757
18.98744681407599
18.987492494689988
18.987528660220455
18.987554839803735
18.98757068823069
18.9875759946739
19.0243756017525
19.024380477470505
19.02439504793553
19.024419144319015
19.024452488980923
19.024494700383528
19.02454530052752
19.024603722304096
19.0246693192931
19.024741373994754
19.024819108088675
19.02490169103086
19.024988248033818
19.025077868712664
19.025169614402436
19.025262524614366
19.025355624159793
19.025447929828662
19.02553845744722
19.02562622954408
19.02571028372217
19.025789682526046
19.02586352313386
19.02593094966078
19.025991164902216
19.026043443296416
19.02608714377735
19.02612172191237
19.026146741194907
19.02616188252984
19.02616695142285
19.05602179249995
19.056026507910538
19.05604060034171
19.056063909454735
19.056096171203183
19.056137021989617
19.056186005124843
19.056242577152588
19.056306116578014
19.0563759311985
19.056451267585814
19.056531319194082
19.056615234129016
19.056702123820525
19.056791070641076
19.05688113487761
19.05697136247845
19.057060792423968
19.05714846444196
19.05723342721052
19.057314747067856
19.05739151792961
19.05746287074941
19.057527985193726
19.057586100465713
19.057636527031605
19.05767865802651
19.057711979844704
19.05773608189544
19.057750664710678
19.057755546042806
19.08064349243255
19.08064808596556
19.080661814856185
19.080684524921935
19.080715961996134
19.08075577556635
19.08080352456069
19.080858682965015
19.080920647807034
19.080988745859358
19.08106224257085
19.081140349822707
19.08122223353595
19.081307022343072
19.081393815396467
19.081481689679794
19.081569708165752
19.08165692764463
19.081742406870244
19.081825215105535
19.08190444103335
19.081979202669682
19.08204865662648
19.082112009309135
19.082168527068003
19.08221754703619
19.082258487508575
19.082290857443923
19.082314265146838
19.082328425418076
19.082333164896284
19.09823457323295
19.09823908115758
19.098252554640503
19.098274843673593
19.09830570080096
19.098344784422185
19.098391664140593
19.09844582592077
19.09850667958449
19.098573565102253
19.09864576115815
19.098722492669264
19.09880293827944
19.098886239019325
19.098971506228743
19.099057829079335
19.099144282988433
19.09922993773373
19.099313865866023
19.0993951514618
19.099472899146694
19.099546243985166
19.099614360593506
19.09967647400361
19.099731869356564
19.09977990214298
19.09982000789837
19.09985171098588
19.099874632571673
19.09988849714761
19.099893137378984
19.108790903293546
19.108795360416316
19.10880868231485
19.10883072140092
19.10886123411356
19.108899884034084
19.108946246988037
19.10899981594374
19.109060008232287
19.10912617160589
19.10919759259341
19.109273503883472
19.109353091750545
19.109435504704297
19.10951986147173
19.109605258634687
19.109690779183133
19.10977550078575
19.109858504346978
19.10993888286956
19.11001575053379
19.11008825256528
19.110155574255273
19.110216951627045
19.110271680863466
19.11031912820339
19.110358739245868
19.11039004732335
19.11041268107591
19.110426370618725
19.11043095211072
19.112309943972715
19.11231438425395
19.112327655896912
19.112349612106296
19.112380010598162
19.11241851665435
19.112464708144763
19.11251808034262
19.112578053054904
19.112643976605426
19.11271514012225
19.112790778876132
19.112870081684417
19.11295219955603
19.113036253692204
19.11312134316041
19.113206553491654
19.113290965000573
19.113373661388046
19.11345373863796
19.11353031411329
19.113602536415215
19.113669594372166
19.113730727640903
19.113785236046777
19.113832489367972
19.11387193651239
19.113903113757758
19.113925652196055
19.11393928378584
19.113943845830764
