# vtk DataFile Version 2.0
Unstructured Grid Example
ASCII
DATASET UNSTRUCTURED_GRID

POINTS 961 float
0.400000004 0.01999999956 0
0.3866666556 0.01999999956 0
0.3733333348 0.01999999956 0
0.3600000144 0.01999999956 0
0.346666664 0.01999999956 0
0.3333333432 0.01999999956 0
0.3199999928 0.01999999956 0
0.3066666724 0.01999999956 0
0.293333322 0.01999999956 0
0.2800000012 0.01999999956 0
0.2666666804 0.01999999956 0
0.25333333 0.01999999956 0
0.2399999948 0.01999999956 0
0.226666674 0.01999999956 0
0.2133333384 0.01999999956 0
0.2000000028 0.01999999956 0
0.1866666676 0.01999999956 0
0.173333332 0.01999999956 0
0.1599999964 0.01999999956 0
0.1466666608 0.01999999956 0
0.1333333404 0.01999999956 0
0.1199999972 0.01999999956 0
0.1066666692 0.01999999956 0
0.0933333336 0.01999999956 0
0.0799999984 0.01999999956 0
0.06666667 0.01999999956 0
0.0533333348 0.01999999956 0
0.03999999912 0.01999999956 0
0.02666666732 0.01999999956 0
0.01333333364 0.01999999956 0
0.0 0.01999999956 0
0.400000004 0.00666666684 0
0.3866666556 0.00666666684 0
0.3733333348 0.00666666684 0
0.3600000144 0.00666666684 0
0.346666664 0.00666666684 0
0.3333333432 0.00666666684 0
0.3199999928 0.00666666684 0
0.3066666724 0.00666666684 0
0.293333322 0.00666666684 0
0.2800000012 0.00666666684 0
0.2666666804 0.00666666684 0
0.25333333 0.00666666684 0
0.2399999948 0.00666666684 0
0.226666674 0.00666666684 0
0.2133333384 0.00666666684 0
0.2000000028 0.00666666684 0
0.1866666676 0.00666666684 0
0.173333332 0.00666666684 0
0.1599999964 0.00666666684 0
0.1466666608 0.00666666684 0
0.1333333404 0.00666666684 0
0.1199999972 0.00666666684 0
0.1066666692 0.00666666684 0
0.0933333336 0.00666666684 0
0.0799999984 0.00666666684 0
0.06666667 0.00666666684 0
0.0533333348 0.00666666684 0
0.03999999912 0.00666666684 0
0.02666666732 0.00666666684 0
0.01333333364 0.00666666684 0
0.0 0.00666666684 0
0.400000004 -0.00666666684 0
0.3866666556 -0.00666666684 0
0.3733333348 -0.00666666684 0
0.3600000144 -0.00666666684 0
0.346666664 -0.00666666684 0
0.3333333432 -0.00666666684 0
0.3199999928 -0.00666666684 0
0.3066666724 -0.00666666684 0
0.293333322 -0.00666666684 0
0.2800000012 -0.00666666684 0
0.2666666804 -0.00666666684 0
0.25333333 -0.00666666684 0
0.2399999948 -0.00666666684 0
0.226666674 -0.00666666684 0
0.2133333384 -0.00666666684 0
0.2000000028 -0.00666666684 0
0.1866666676 -0.00666666684 0
0.173333332 -0.00666666684 0
0.1599999964 -0.00666666684 0
0.1466666608 -0.00666666684 0
0.1333333404 -0.00666666684 0
0.1199999972 -0.00666666684 0
0.1066666692 -0.00666666684 0
0.0933333336 -0.00666666684 0
0.0799999984 -0.00666666684 0
0.06666667 -0.00666666684 0
0.0533333348 -0.00666666684 0
0.03999999912 -0.00666666684 0
0.02666666732 -0.00666666684 0
0.01333333364 -0.00666666684 0
0.0 -0.00666666684 0
0.400000004 -0.01999999956 0
0.3866666556 -0.01999999956 0
0.3733333348 -0.01999999956 0
0.3600000144 -0.01999999956 0
0.346666664 -0.01999999956 0
0.3333333432 -0.01999999956 0
0.3199999928 -0.01999999956 0
0.3066666724 -0.01999999956 0
0.293333322 -0.01999999956 0
0.2800000012 -0.01999999956 0
0.2666666804 -0.01999999956 0
0.25333333 -0.01999999956 0
0.2399999948 -0.01999999956 0
0.226666674 -0.01999999956 0
0.2133333384 -0.01999999956 0
0.2000000028 -0.01999999956 0
0.1866666676 -0.01999999956 0
0.173333332 -0.01999999956 0
0.1599999964 -0.01999999956 0
0.1466666608 -0.01999999956 0
0.1333333404 -0.01999999956 0
0.1199999972 -0.01999999956 0
0.1066666692 -0.01999999956 0
0.0933333336 -0.01999999956 0
0.0799999984 -0.01999999956 0
0.06666667 -0.01999999956 0
0.0533333348 -0.01999999956 0
0.03999999912 -0.01999999956 0
0.02666666732 -0.01999999956 0
0.01333333364 -0.01999999956 0
0.0 -0.01999999956 0
0.400000004 -0.03333333508 0
0.3866666556 -0.03333333508 0
0.3733333348 -0.03333333508 0
0.3600000144 -0.03333333508 0
0.346666664 -0.03333333508 0
0.3333333432 -0.03333333508 0
0.3199999928 -0.03333333508 0
0.3066666724 -0.03333333508 0
0.293333322 -0.03333333508 0
0.2800000012 -0.03333333508 0
0.2666666804 -0.03333333508 0
0.25333333 -0.03333333508 0
0.2399999948 -0.03333333508 0
0.226666674 -0.03333333508 0
0.2133333384 -0.03333333508 0
0.2000000028 -0.03333333508 0
0.1866666676 -0.03333333508 0
0.173333332 -0.03333333508 0
0.1599999964 -0.03333333508 0
0.1466666608 -0.03333333508 0
0.1333333404 -0.03333333508 0
0.1199999972 -0.03333333508 0
0.1066666692 -0.03333333508 0
0.0933333336 -0.03333333508 0
0.0799999984 -0.03333333508 0
0.06666667 -0.03333333508 0
0.0533333348 -0.03333333508 0
0.03999999912 -0.03333333508 0
0.02666666732 -0.03333333508 0
0.01333333364 -0.03333333508 0
0.0 -0.03333333508 0
0.400000004 -0.0466666668 0
0.3866666556 -0.0466666668 0
0.3733333348 -0.0466666668 0
0.3600000144 -0.0466666668 0
0.346666664 -0.0466666668 0
0.3333333432 -0.0466666668 0
0.3199999928 -0.0466666668 0
0.3066666724 -0.0466666668 0
0.293333322 -0.0466666668 0
0.2800000012 -0.0466666668 0
0.2666666804 -0.0466666668 0
0.25333333 -0.0466666668 0
0.2399999948 -0.0466666668 0
0.226666674 -0.0466666668 0
0.2133333384 -0.0466666668 0
0.2000000028 -0.0466666668 0
0.1866666676 -0.0466666668 0
0.173333332 -0.0466666668 0
0.1599999964 -0.0466666668 0
0.1466666608 -0.0466666668 0
0.1333333404 -0.0466666668 0
0.1199999972 -0.0466666668 0
0.1066666692 -0.0466666668 0
0.0933333336 -0.0466666668 0
0.0799999984 -0.0466666668 0
0.06666667 -0.0466666668 0
0.0533333348 -0.0466666668 0
0.03999999912 -0.0466666668 0
0.02666666732 -0.0466666668 0
0.01333333364 -0.0466666668 0
0.0 -0.0466666668 0
0.400000004 -0.0599999988 0
0.3866666556 -0.0599999988 0
0.3733333348 -0.0599999988 0
0.3600000144 -0.0599999988 0
0.346666664 -0.0599999988 0
0.3333333432 -0.0599999988 0
0.3199999928 -0.0599999988 0
0.3066666724 -0.0599999988 0
0.293333322 -0.0599999988 0
0.2800000012 -0.0599999988 0
0.2666666804 -0.0599999988 0
0.25333333 -0.0599999988 0
0.2399999948 -0.0599999988 0
0.226666674 -0.0599999988 0
0.2133333384 -0.0599999988 0
0.2000000028 -0.0599999988 0
0.1866666676 -0.0599999988 0
0.173333332 -0.0599999988 0
0.1599999964 -0.0599999988 0
0.1466666608 -0.0599999988 0
0.1333333404 -0.0599999988 0
0.1199999972 -0.0599999988 0
0.1066666692 -0.0599999988 0
0.0933333336 -0.0599999988 0
0.0799999984 -0.0599999988 0
0.06666667 -0.0599999988 0
0.0533333348 -0.0599999988 0
0.03999999912 -0.0599999988 0
0.02666666732 -0.0599999988 0
0.01333333364 -0.0599999988 0
0.0 -0.0599999988 0
0.400000004 -0.0733333304 0
0.3866666556 -0.0733333304 0
0.3733333348 -0.0733333304 0
0.3600000144 -0.0733333304 0
0.346666664 -0.0733333304 0
0.3333333432 -0.0733333304 0
0.3199999928 -0.0733333304 0
0.3066666724 -0.0733333304 0
0.293333322 -0.0733333304 0
0.2800000012 -0.0733333304 0
0.2666666804 -0.0733333304 0
0.25333333 -0.0733333304 0
0.2399999948 -0.0733333304 0
0.226666674 -0.0733333304 0
0.2133333384 -0.0733333304 0
0.2000000028 -0.0733333304 0
0.1866666676 -0.0733333304 0
0.173333332 -0.0733333304 0
0.1599999964 -0.0733333304 0
0.1466666608 -0.0733333304 0
0.1333333404 -0.0733333304 0
0.1199999972 -0.0733333304 0
0.1066666692 -0.0733333304 0
0.0933333336 -0.0733333304 0
0.0799999984 -0.0733333304 0
0.06666667 -0.0733333304 0
0.0533333348 -0.0733333304 0
0.03999999912 -0.0733333304 0
0.02666666732 -0.0733333304 0
0.01333333364 -0.0733333304 0
0.0 -0.0733333304 0
0.400000004 -0.086666666 0
0.3866666556 -0.086666666 0
0.3733333348 -0.086666666 0
0.3600000144 -0.086666666 0
0.346666664 -0.086666666 0
0.3333333432 -0.086666666 0
0.3199999928 -0.086666666 0
0.3066666724 -0.086666666 0
0.293333322 -0.086666666 0
0.2800000012 -0.086666666 0
0.2666666804 -0.086666666 0
0.25333333 -0.086666666 0
0.2399999948 -0.086666666 0
0.226666674 -0.086666666 0
0.2133333384 -0.086666666 0
0.2000000028 -0.086666666 0
0.1866666676 -0.086666666 0
0.173333332 -0.086666666 0
0.1599999964 -0.086666666 0
0.1466666608 -0.086666666 0
0.1333333404 -0.086666666 0
0.1199999972 -0.086666666 0
0.1066666692 -0.086666666 0
0.0933333336 -0.086666666 0
0.0799999984 -0.086666666 0
0.06666667 -0.086666666 0
0.0533333348 -0.086666666 0
0.03999999912 -0.086666666 0
0.02666666732 -0.086666666 0
0.01333333364 -0.086666666 0
0.0 -0.086666666 0
0.400000004 -0.1000000016 0
0.3866666556 -0.1000000016 0
0.3733333348 -0.1000000016 0
0.3600000144 -0.1000000016 0
0.346666664 -0.1000000016 0
0.3333333432 -0.1000000016 0
0.3199999928 -0.1000000016 0
0.3066666724 -0.1000000016 0
0.293333322 -0.1000000016 0
0.2800000012 -0.1000000016 0
0.2666666804 -0.1000000016 0
0.25333333 -0.1000000016 0
0.2399999948 -0.1000000016 0
0.226666674 -0.1000000016 0
0.2133333384 -0.1000000016 0
0.2000000028 -0.1000000016 0
0.1866666676 -0.1000000016 0
0.173333332 -0.1000000016 0
0.1599999964 -0.1000000016 0
0.1466666608 -0.1000000016 0
0.1333333404 -0.1000000016 0
0.1199999972 -0.1000000016 0
0.1066666692 -0.1000000016 0
0.0933333336 -0.1000000016 0
0.0799999984 -0.1000000016 0
0.06666667 -0.1000000016 0
0.0533333348 -0.1000000016 0
0.03999999912 -0.1000000016 0
0.02666666732 -0.1000000016 0
0.01333333364 -0.1000000016 0
0.0 -0.1000000016 0
0.400000004 -0.1133333372 0
0.3866666556 -0.1133333372 0
0.3733333348 -0.1133333372 0
0.3600000144 -0.1133333372 0
0.346666664 -0.1133333372 0
0.3333333432 -0.1133333372 0
0.3199999928 -0.1133333372 0
0.3066666724 -0.1133333372 0
0.293333322 -0.1133333372 0
0.2800000012 -0.1133333372 0
0.2666666804 -0.1133333372 0
0.25333333 -0.1133333372 0
0.2399999948 -0.1133333372 0
0.226666674 -0.1133333372 0
0.2133333384 -0.1133333372 0
0.2000000028 -0.1133333372 0
0.1866666676 -0.1133333372 0
0.173333332 -0.1133333372 0
0.1599999964 -0.1133333372 0
0.1466666608 -0.1133333372 0
0.1333333404 -0.1133333372 0
0.1199999972 -0.1133333372 0
0.1066666692 -0.1133333372 0
0.0933333336 -0.1133333372 0
0.0799999984 -0.1133333372 0
0.06666667 -0.1133333372 0
0.0533333348 -0.1133333372 0
0.03999999912 -0.1133333372 0
0.02666666732 -0.1133333372 0
0.01333333364 -0.1133333372 0
0.0 -0.1133333372 0
0.400000004 -0.1266666652 0
0.3866666556 -0.1266666652 0
0.3733333348 -0.1266666652 0
[...]
POINT_DATA 961
SCALARS Temp float 1
LOOKUP_TABLE default
0.7051743318641286
0.7333392081114577
0.7535513251751556
0.7682475157975148
0.7790155352604825
0.7869441427630838
0.7928084669645028
0.7971664156900445
0.8004240568319154
0.8028789211044455
0.804751601958796
0.8062076670467482
0.8073736448913372
0.8083494667439739
0.8092177499376227
0.8100511622115741
0.8109191653506337
0.8118942143332818
0.8130582698798264
0.8145102489324632
0.8163750982393843
0.818815740181335
0.8220483001411978
0.8263637420064502
0.8321569142713767
0.8399677716363563
0.8505401037454827
0.8649074541121445
0.8845239918097811
0.9115001374994721
0.9491835496526713
0.7442981767470518
0.7719158258359087
0.7919108490472945
0.8065265936819913
0.8172576353507905
0.8251710616279163
0.831030810050874
0.8353894622169621
0.8386503028885444
0.8411094146496969
0.8429866474647317
0.8444472192543168
0.8456175348263707
0.8465975228132283
0.8474698652300945
0.8483073341138703
0.8491795099947869
0.8501589659698235
0.8513277624399755
0.8527848714429512
0.8546552088089822
0.8571015007018514
0.8603393911085552
0.8646588357706448
0.8704527311513791
0.8782573133006639
0.8888092263102966
0.9031272432959938
0.9226347808335403
0.9493358877256173
0.9861332701971686
2.5760401858021433
2.5801432029750693
2.5915784225641305
2.6021250910741416
2.610846282927141
2.617785050320781
2.62321784522676
2.6274431092540604
2.6307255629231623
2.633284915763401
2.6352989223982095
2.6369105029883078
2.6382354602136564
2.6393696968756912
2.6403956391523624
2.6413879799443336
2.6424190203308773
2.6435639081184075
2.644906056539016
2.646543079834511
2.6485935771683797
2.651204989488911
2.6545626648768286
2.6588997760617095
2.6645065416537115
2.6717340232054307
2.6809789032548483
2.6926087503114857
2.706680196551342
2.7219334942784172
2.7274095920637755
4.384954115036972
4.38719317178308
4.392688655891311
4.399555417358944
4.406066053842325
4.411710515467731
4.416405925758408
4.42023128943567
4.4233172683270325
4.425801567710266
4.4278119268828595
4.429461036691112
4.4308467550597275
4.432054602085766
4.43316114092899
4.4342376853895065
4.43535413863036
4.436582906545934
4.438002917196172
4.439703756998237
4.441789835581551
4.444384289135428
4.44763176756557
4.451698365534192
4.456764549412389
4.463002135063574
4.47051461843104
4.479189714576079
4.488344557193899
4.495673327335129
4.498659311526302
6.188525564750702
6.189717122568044
6.1929373912380905
6.197297490418437
6.201940566684948
6.20630311926861
6.210153218574483
6.213436102811537
6.216183337854434
6.2184635948480445
6.220357820690271
6.221947427042036
6.223309468123265
6.224515531373518
6.225632549142333
6.226724617072447
6.227855331556859
6.229090345313528
6.230499946619096
6.232161434490917
6.2341609211644275
6.236593907094311
6.239563327648815
6.243172797990679
6.2475105766190975
6.252616133310614
6.258414338058432
6.264593897228527
6.270401492503372
6.274692636416262
6.276280732227081
7.988873379571902
7.989599076363469
7.991607049000756
7.994481866833139
7.997742721687105
8.001006069855098
8.004037703644062
8.00673194643402
8.00906437853927
8.011056157984111
8.01275141950395
8.014204142923948
8.015471183889618
8.016609101854826
8.0176732239718
8.0187180100926
8.01979813152086
8.020969839397884
8.02229229630944
8.023828507690661
8.02564534865989
8.027811918899333
8.03039491970699
8.033449085748934
8.036999422613556
8.041010792542902
8.045340197806382
8.049673501585202
8.053497684341004
8.05617027946694
8.05713641804644
9.78705115510204
9.787513288050818
9.788816139611498
9.790742055026783
9.793018951797109
9.7953983235272
9.79769994744989
9.799818186309512
9.80170742260685
9.803362458102239
9.804802584633908
9.806060553652156
9.8071757291928
9.808190277705377
9.809147363244046
9.810090608885435
9.811064286705482
9.81211380080682
9.813286100037223
9.814629623031717
9.816193268035512
9.81802369739766
9.820159951376121
9.82262410177584
9.825406339656514
9.82844351563864
9.83159290810249
9.834612629475236
9.837170041004123
9.838901335963545
9.839515642348333
11.583523365226018
11.58382095790642
11.584669216660435
11.58594935556824
11.587504480610335
11.589179550181687
11.590849477082175
11.592430096741005
11.593875850716387
11.595171193075894
11.596321188433738
11.597343778552895
11.59826432013832
11.599112141610071
11.599918600187724
11.600716162096743
11.601538098041674
11.60241842549503
11.603391772772898
11.60449281311703
11.605754847485825
11.607207021215363
11.608869513358892
11.610746097489333
11.612813678819197
11.615009597063988
11.617220101620937
11.619277143162462
11.620973003755449
11.622097735543688
11.622492485211197
13.378520717642804
13.3787043130456
13.379231463436073
13.380037968545336
13.381036105012438
13.382134705408244
13.383255229816388
13.38434020187312
13.385354550221336
13.386282444739066
13.387122510644886
13.387883194520459
13.388579112889904
13.389228527775073
13.389851765733283
13.390470328077924
13.391106433817747
13.391782735531773
13.392521969576062
13.393346284047793
13.394275953261197
13.395327157875629
13.396508479433674
13.397815933621812
13.399226692882259
13.400692599498797
13.402135906140824
13.403450986138353
13.404515583688873
13.405212216535716
13.405454967360601
15.172155645418071
15.17225155476468
15.172528458757826
15.172956640421438
15.173494613918448
15.174097874980555
15.174726428968402
15.175349353273628
15.175946246935851
15.176506388403052
15.177026797379998
15.177510078012533
15.17796256210169
15.178392928804957
15.178811268865559
15.179228495343246
15.179655979230802
15.180105273540683
15.180587797873567
15.181114346134992
15.181694268271123
15.182334177292791
15.183036042374166
15.183794668930714
15.184594774840305
15.18540835259453
15.186193528141654
15.186896452703689
15.18745738772527
15.18782072660446
15.187946669732922
16.964482057038907
16.96450217194899
16.96456127750945
16.964655884214206
16.964780862423936
16.964930250536348
16.965098052976142
16.965278858052255
16.965468215154
16.96566277248661
16.965860248422768
16.966059297377356
16.966259332398195
16.966460344259108
16.96666273006668
16.966867136997642
16.96707432007195
16.967285002429023
16.967499728869363
16.96771870211386
16.967941593245683
16.968167325395385
16.968393833894382
16.968617836243002
16.96883465404037
16.969038171047387
16.969221020527346
16.969375082875672
16.969492312872575
16.969565800919842
16.969590852288043
17.064483168664303
17.06449975000101
17.064548654653507
17.064627497492204
17.06473270879427
17.06486002825062
17.065005020010453
17.065163504498845
17.06533186069034
17.065507178890527
17.065687297143327
17.065870748599984
17.06605665916451
17.06624462523176
17.066434583584172
17.06662668202213
17.066821154432187
17.06701819450713
17.06721782458625
17.067419755112873
17.067623232438716
17.067826879716144
17.06802853820477
17.068225139526707
17.0684126385168
17.068586060412375
17.068739709282443
17.068867567531495
17.068963875250027
17.0690238149324
17.06904417168029
17.164380937974958
17.16439487380482
17.164436094952656
17.16450292308818
17.16459280967481
17.164702646992428
17.164829106570103
17.164968939919472
17.16511920988609
17.16527742889308
17.16544161890864
17.165610302246463
17.16578244687256
17.165957386898416
17.16613472718242
17.166314240689623
17.166495764498155
17.1666790922819
17.16686386354727
17.1670494491102
17.16723483419544
17.167418506204353
17.167598354677494
17.167771608306346
17.167934827170015
17.16808398305176
17.168214649172377
17.16832230652183
17.16840274859092
17.168452531286693
17.168469389149962
17.264180379075476
17.264192284803578
17.264227580905366
17.26428505481367
17.26436284299693
17.264458631909104
17.264569884340375
17.264694049485538
17.26482873627846
17.264971828309207
17.26512154721598
17.26527646447709
17.265435475491586
17.26559774976512
17.265762662867157
17.26592971767112
17.266098461353028
17.266268397969178
17.26643889909015
17.26660911425518
17.266777884383902
17.266943665524572
17.267104469047048
17.267257837425543
17.267400865286433
17.267530285430723
17.26764262784705
17.267734449735045
17.267802619459832
17.26784461759522
17.267858806420254
17.363885259526015
17.36389557421011
17.363926208020434
17.363976263005334
17.364044344969532
17.364128696284517
17.36422734984909
17.364338276728517
17.364459514849916
17.3645892605432
17.36472592664162
17.36486816284241
17.365014846409917
17.36516505234953
17.365318006097883
17.365473024793626
17.36562945334328
17.365786596004156
17.365943646983695
17.366099622869182
17.36625330057311
17.36640316753571
17.366547388490137
17.366683803220283
17.36680995933952
17.36692319192983
17.367020751504057
17.367099975256934
17.367158487810098
17.36719440617946
17.36720651845914
17.46349843286642
17.463507478205457
17.46353438001377
17.46357845740534
17.46363864376758
17.463713576313328
17.463801702482534
17.463901384509974
17.464010994772963
17.464128987075192
17.464253946500563
17.464384611898083
17.46451987575814
17.464658767572708
17.464800421855664
17.464944035536234
17.46508882030377
17.465233950870317
17.465378512911336
17.46552145376581
17.46566153945515
17.465797323760306
17.465927132022752
17.46604907053943
17.466161062097413
17.466260914924238
17.46634642354399
17.466415496056193
17.466466297395026
17.466497391205515
17.466507860862283
17.559829978360945
17.559837993591458
17.559861858294063
17.559901044248942
17.559954717467058
17.560021799655438
17.560101042859948
17.5601911041565
17.560290616438323
17.560398243278428
17.560512720282368
17.56063287663392
17.560757639747358
17.560886027212486
17.561017125973404
17.561150062335493
17.561283967630626
17.561417940402038
17.561551008692035
17.5616820953431
17.561809989424845
17.56193332848183
17.56205059296734
17.562160121163572
17.5622601431243
17.562348838326766
17.56242441437272
17.562485201805256
17.562529757395914
17.562556963884717
17.56256611352761
17.6496667928792
17.64967395924613
17.649695315299414
17.649730442100747
17.649778673546674
17.64983913923239
17.64991081756382
17.649992589583764
17.650083291786185
17.650181758135297
17.650286853790593
17.65039749447314
17.65051265338548
17.650631358692774
17.650752680737938
17.650875711712477
17.650999541886254
17.651123232996753
17.651245791992476
17.651366147661726
17.651483132706872
17.65159547501668
17.651701798548498
17.651800640302795
17.65189048085552
17.651969791688142
17.652037096390043
17.6520910416368
17.652130472455436
17.652154503372962
17.65216257710485
17.732977361533905
17.73298382097004
17.733003083709196
17.733034810235296
17.73307845732584
17.73313330838848
17.73319851178586
17.733273119996117
17.733356129313336
17.733446512036537
17.733543243802774
17.733645320466888
17.733751765911272
17.733861633066535
17.733973996867096
17.73408794120245
17.73420254332153
17.73431685598706
17.73442989011417
17.73454059998099
17.734647873027505
17.734750527205865
17.7348473156325
17.734936943744387
17.735018095925835
17.73508947404372
17.735149845098825
17.735198094726922
17.735233282661376
17.735254694207345
17.73526188214215
17.809732402091875
17.809738268180276
17.809755771060615
17.809784629736754
17.809824392094356
17.809874456679946
17.80993410075384
17.810002509079133
17.810078804060492
17.810162070510042
17.810251377827402
17.810345794524306
17.810444396202637
17.810546268815603
17.810650505693882
17.81075619990568
17.810862434859914
17.810968273162995
17.811072746010435
17.811174844771063
17.811273516299103
17.81136766430395
17.811456156088617
17.81153783895413
17.811611563067146
17.811676212785656
17.811730743935126
17.811774224487145
17.811805875916566
17.81182511096688
17.81183156403425
17.87990482078615
17.879910186364985
17.87992620273201
17.87995263254429
17.87998909203137
17.880035066857594
17.88008993296945
17.880152978009956
17.880223424481834
17.880300448956426
17.88038320019767
17.880470811637323
17.880562409170835
17.880657115816213
17.880754051605198
17.880852329911658
17.880951052674995
17.881049304284968
17.8811461460028
17.881240612196926
17.881331709528588
17.881418420922124
17.881499713352408
17.88157455309781
17.8816419252695
17.881700859362876
17.881750458642536
17.88178993139519
17.881818622165046
17.881836039860715
17.881841880131226
17.943469696054844
17.943474638583645
17.943489397093856
17.9435137671564
17.943547416792693
17.943589898205367
17.94364066352962
17.94369908097887
17.943764452914234
17.94383603091765
17.943913030772244
17.943994643236657
17.944080041511146
17.944168386749013
17.944258829946797
17.944350511150127
17.94444255806771
17.944534083665204
17.94462418426901
17.944711939141875
17.94479641234587
17.944876658347933
17.944951730232393
17.945020693696968
17.94508264374781
17.945136725694834
17.94518215855789
17.94521825937486
17.945244467125658
17.945260363969286
17.94526569198659
18.000404660661328
18.0004092460677
18.000422941780126
18.0004455684008
18.00047683352167
18.00051634054665
18.000563600815525
18.000618045971883
18.000679042309567
18.0007459027811
18.000817899567437
18.0008942734815
18.00097424106413
18.001057000596738
18.001141735371977
18.00122761496152
18.001313796282076
18.00139942388317
18.001483630704982
18.001565540013992
18.00164426908367
18.0017189357876
18.00178866687639
18.00185261076409
18.001909951884876
18.00195992813001
18.002001849736537
18.002035118467397
18.00205924622579
18.00207387136716
18.00207877144172
18.050689200668867
18.050693486157552
18.050706288658183
18.050727447918728
18.050756701923998
18.05079369365979
18.050837980642314
18.050889044571928
18.050946302958135
18.05100911886591
18.051076811652337
18.051148665287243
18.0512239350928
18.051301854032904
18.05138163692527
18.05146248316858
18.05154357955583
18.051624102489928
18.051703220624383
18.05178009843924
18.05185390113087
18.051923801766236
18.051988989428786
18.052048680917
18.052102133210287
18.05214865815054
18.05218763792603
18.05221854046199
18.052240934164363
18.05225450068129
18.052259044784762
18.09430561729681
18.094309653428866
18.09432171286118
18.094341650007795
18.094369226222426
18.09440411510192
18.09444591015716
18.094494132516868
18.094548240566816
18.09460763803469
18.094671683343975
18.094739697092944
18.09481096847653
18.094884761712287
18.094960320884198
18.095036873688716
18.095113635474945
18.09518981281813
18.095264607474984
18.09533722107949
18.095406860817555
18.095472746869536
18.095534120332953
18.09559025398533
18.095640463247452
18.095684118749453
18.095720659259822
18.095749604278947
18.095770565958603
18.09578325929731
18.095787509967952
18.131238150477788
18.131241982748087
18.131253434401728
18.131272371032672
18.13129857186726
18.131331734032955
18.131371478901222
18.13141735839636
18.131468863193565
18.131525429593353
18.13158644784338
18.131651268973997
18.13171921095106
18.131789565154076
18.13186160163586
18.131934573569012
18.132007722132208
18.132080281024567
18.13215148132245
18.132220556924636
18.132286750721804
18.132349322159783
18.13240755491156
18.13246076686404
18.13250831990876
18.132549630903
18.132584182697116
18.13261153467486
18.132631332619844
18.13264331705985
18.132647329621822
18.16147371321255
18.161477383266448
18.161488351125602
18.161506490779466
18.161531594913352
18.161563378451035
18.161601483958368
18.161645486965348
18.16169490313197
18.161749194253268
18.16180777582428
18.161870023394336
18.161935278502224
18.16200285515955
18.162072045377485
18.16214212408507
18.162212354587016
18.16228199371625
18.162350297295575
18.16241652607254
18.16247995218972
18.162539866773802
18.162595587368568
18.162646467302196
18.162691904584946
18.162731351675845
18.16276432511634
18.16279041458391
18.162809291283075
18.162820714968785
18.162824539254977
18.185001539551475
18.185005086152596
18.18501568572615
18.185033218364175
18.185057486557348
18.185088218240193
18.185125071546977
18.18516763945354
18.18521545622385
18.185268002808478
18.18532471387189
18.18538498379946
18.185448172465826
18.185513611701634
18.185580610986293
18.185648462674415
18.185716447828227
18.18578384178969
18.185849920035647
18.18591396442243
18.185975269831097
18.18603315173599
18.186086953434803
18.186136054945074
18.186179881248385
18.18621791119731
18.186249686159428
18.18627481802437
18.186292996563363
18.186303995533624
18.186307677262114
18.201813108252495
18.201816568075664
18.20182690872225
18.201844014430026
18.201867694362356
18.201897685331392
18.20193365613202
18.201975211741363
18.202021899293037
18.202073213077544
18.202128601211193
18.202187471409236
18.202249196636586
18.202313121552624
18.20237856830155
18.20244484192937
18.20251123644829
18.20257704066961
18.20264154430111
18.202704044376905
18.2027638519984
18.202820299868385
18.202872749368225
18.20292059912498
18.202963292809972
18.20300032746743
18.203031261498865
18.203055721977954
18.203073411330763
18.20308411283757
18.20308769474249
18.211902478778285
18.21190588708119
18.211916073983126
18.211932926128274
18.211956256557666
18.211985807251654
18.212021253226233
18.212062206483292
18.212108221717735
18.212158801091938
18.212213400699948
18.212271436205505
18.21233228842301
18.212395309745354
18.21245982998481
18.212525161893105
18.21259060735117
18.21265546334379
18.21271902818717
18.21278060805644
18.212839523772775
18.212895118309486
18.212946763774738
18.212993869783823
18.21303589099879
18.21307233512377
18.213102770511917
18.21312683308587
18.213144232632317
18.21315475796245
18.21315828075378
18.215265993459788
18.215269384679026
18.21527952059752
18.215296288648446
18.21531950314506
18.21534890776481
18.215384179568947
18.215424932872494
18.215470724864566
18.215521060310067
18.215575397946957
18.215633156080244
18.215693718139867
18.21575643910217
18.215820651346412
18.21588567020733
18.215950800204496
18.216015341061706
18.21607859397562
18.216139868173503
18.216198487714028
18.216253798982716
18.21630517764293
18.216352036943533
18.216393835173584
18.216430083548925
18.216460353696196
18.216484284445162
18.216501587998344
18.216512054980907
18.21651555819588
