# vtk DataFile Version 2.0
Unstructured Grid Example
ASCII
DATASET UNSTRUCTURED_GRID

POINTS 961 float
0.400000004 0.01999999956 0
0.3866666556 0.01999999956 0
0.3733333348 0.01999999956 0
0.3600000144 0.01999999956 0
0.346666664 0.01999999956 0
0.3333333432 0.01999999956 0
0.3199999928 0.01999999956 0
0.3066666724 0.01999999956 0
0.293333322 0.01999999956 0
0.2800000012 0.01999999956 0
0.2666666804 0.01999999956 0
0.25333333 0.01999999956 0
0.2399999948 0.01999999956 0
0.226666674 0.01999999956 0
0.2133333384 0.01999999956 0
0.2000000028 0.01999999956 0
0.1866666676 0.01999999956 0
0.173333332 0.01999999956 0
0.1599999964 0.01999999956 0
0.1466666608 0.01999999956 0
0.1333333404 0.01999999956 0
0.1199999972 0.01999999956 0
0.1066666692 0.01999999956 0
0.0933333336 0.01999999956 0
0.0799999984 0.01999999956 0
0.06666667 0.01999999956 0
0.0533333348 0.01999999956 0
0.03999999912 0.01999999956 0
0.02666666732 0.01999999956 0
0.01333333364 0.01999999956 0
0.0 0.01999999956 0
0.400000004 0.00666666684 0
0.3866666556 0.00666666684 0
0.3733333348 0.00666666684 0
0.3600000144 0.00666666684 0
0.346666664 0.00666666684 0
0.3333333432 0.00666666684 0
0.3199999928 0.00666666684 0
0.3066666724 0.00666666684 0
0.293333322 0.00666666684 0
0.2800000012 0.00666666684 0
0.2666666804 0.00666666684 0
0.25333333 0.00666666684 0
0.2399999948 0.00666666684 0
0.226666674 0.00666666684 0
0.2133333384 0.00666666684 0
0.2000000028 0.00666666684 0
0.1866666676 0.00666666684 0
0.173333332 0.00666666684 0
0.1599999964 0.00666666684 0
0.1466666608 0.00666666684 0
0.1333333404 0.00666666684 0
0.1199999972 0.00666666684 0
0.1066666692 0.00666666684 0
0.0933333336 0.00666666684 0
0.0799999984 0.00666666684 0
0.06666667 0.00666666684 0
0.0533333348 0.00666666684 0
0.03999999912 0.00666666684 0
0.02666666732 0.00666666684 0
0.01333333364 0.00666666684 0
0.0 0.00666666684 0
0.400000004 -0.00666666684 0
0.3866666556 -0.00666666684 0
0.3733333348 -0.00666666684 0
0.3600000144 -0.00666666684 0
0.346666664 -0.00666666684 0
0.3333333432 -0.00666666684 0
0.3199999928 -0.00666666684 0
0.3066666724 -0.00666666684 0
0.293333322 -0.00666666684 0
0.2800000012 -0.00666666684 0
0.2666666804 -0.00666666684 0
0.25333333 -0.00666666684 0
0.2399999948 -0.00666666684 0
0.226666674 -0.00666666684 0
0.2133333384 -0.00666666684 0
0.2000000028 -0.00666666684 0
0.1866666676 -0.00666666684 0
0.173333332 -0.00666666684 0
0.1599999964 -0.00666666684 0
0.1466666608 -0.00666666684 0
0.1333333404 -0.00666666684 0
0.1199999972 -0.00666666684 0
0.1066666692 -0.00666666684 0
0.0933333336 -0.00666666684 0
0.0799999984 -0.00666666684 0
0.06666667 -0.00666666684 0
0.0533333348 -0.00666666684 0
0.03999999912 -0.00666666684 0
0.02666666732 -0.00666666684 0
0.01333333364 -0.00666666684 0
0.0 -0.00666666684 0
0.400000004 -0.01999999956 0
0.3866666556 -0.01999999956 0
0.3733333348 -0.01999999956 0
0.3600000144 -0.01999999956 0
0.346666664 -0.01999999956 0
0.3333333432 -0.01999999956 0
0.3199999928 -0.01999999956 0
0.3066666724 -0.01999999956 0
0.293333322 -0.01999999956 0
0.2800000012 -0.01999999956 0
0.2666666804 -0.01999999956 0
0.25333333 -0.01999999956 0
0.2399999948 -0.01999999956 0
0.226666674 -0.01999999956 0
0.2133333384 -0.01999999956 0
0.2000000028 -0.01999999956 0
0.1866666676 -0.01999999956 0
0.173333332 -0.01999999956 0
0.1599999964 -0.01999999956 0
0.1466666608 -0.01999999956 0
0.1333333404 -0.01999999956 0
0.1199999972 -0.01999999956 0
0.1066666692 -0.01999999956 0
0.0933333336 -0.01999999956 0
0.0799999984 -0.01999999956 0
0.06666667 -0.01999999956 0
0.0533333348 -0.01999999956 0
0.03999999912 -0.01999999956 0
0.02666666732 -0.01999999956 0
0.01333333364 -0.01999999956 0
0.0 -0.01999999956 0
0.400000004 -0.03333333508 0
0.3866666556 -0.03333333508 0
0.3733333348 -0.03333333508 0
0.3600000144 -0.03333333508 0
0.346666664 -0.03333333508 0
0.3333333432 -0.03333333508 0
0.3199999928 -0.03333333508 0
0.3066666724 -0.03333333508 0
0.293333322 -0.03333333508 0
0.2800000012 -0.03333333508 0
0.2666666804 -0.03333333508 0
0.25333333 -0.03333333508 0
0.2399999948 -0.03333333508 0
0.226666674 -0.03333333508 0
0.2133333384 -0.03333333508 0
0.2000000028 -0.03333333508 0
0.1866666676 -0.03333333508 0
0.173333332 -0.03333333508 0
0.1599999964 -0.03333333508 0
0.1466666608 -0.03333333508 0
0.1333333404 -0.03333333508 0
0.1199999972 -0.03333333508 0
0.1066666692 -0.03333333508 0
0.0933333336 -0.03333333508 0
0.0799999984 -0.03333333508 0
0.06666667 -0.03333333508 0
0.0533333348 -0.03333333508 0
0.03999999912 -0.03333333508 0
0.02666666732 -0.03333333508 0
0.01333333364 -0.03333333508 0
0.0 -0.03333333508 0
0.400000004 -0.0466666668 0
0.3866666556 -0.0466666668 0
0.3733333348 -0.0466666668 0
0.3600000144 -0.0466666668 0
0.346666664 -0.0466666668 0
0.3333333432 -0.0466666668 0
0.3199999928 -0.0466666668 0
0.3066666724 -0.0466666668 0
0.293333322 -0.0466666668 0
0.2800000012 -0.0466666668 0
0.2666666804 -0.0466666668 0
0.25333333 -0.0466666668 0
0.2399999948 -0.0466666668 0
0.226666674 -0.0466666668 0
0.2133333384 -0.0466666668 0
0.2000000028 -0.0466666668 0
0.1866666676 -0.0466666668 0
0.173333332 -0.0466666668 0
0.1599999964 -0.0466666668 0
0.1466666608 -0.0466666668 0
0.1333333404 -0.0466666668 0
0.1199999972 -0.0466666668 0
0.1066666692 -0.0466666668 0
0.0933333336 -0.0466666668 0
0.0799999984 -0.0466666668 0
0.06666667 -0.0466666668 0
0.0533333348 -0.0466666668 0
0.03999999912 -0.0466666668 0
0.02666666732 -0.0466666668 0
0.01333333364 -0.0466666668 0
0.0 -0.0466666668 0
0.400000004 -0.0599999988 0
0.3866666556 -0.0599999988 0
0.3733333348 -0.0599999988 0
0.3600000144 -0.0599999988 0
0.346666664 -0.0599999988 0
0.3333333432 -0.0599999988 0
0.3199999928 -0.0599999988 0
0.3066666724 -0.0599999988 0
0.293333322 -0.0599999988 0
0.2800000012 -0.0599999988 0
0.2666666804 -0.0599999988 0
0.25333333 -0.0599999988 0
0.2399999948 -0.0599999988 0
0.226666674 -0.0599999988 0
0.2133333384 -0.0599999988 0
0.2000000028 -0.0599999988 0
0.1866666676 -0.0599999988 0
0.173333332 -0.0599999988 0
0.1599999964 -0.0599999988 0
0.1466666608 -0.0599999988 0
0.1333333404 -0.0599999988 0
0.1199999972 -0.0599999988 0
0.1066666692 -0.0599999988 0
0.0933333336 -0.0599999988 0
0.0799999984 -0.0599999988 0
0.06666667 -0.0599999988 0
0.0533333348 -0.0599999988 0
0.03999999912 -0.0599999988 0
0.02666666732 -0.0599999988 0
0.01333333364 -0.0599999988 0
0.0 -0.0599999988 0
0.400000004 -0.0733333304 0
0.3866666556 -0.0733333304 0
0.3733333348 -0.0733333304 0
0.3600000144 -0.0733333304 0
0.346666664 -0.0733333304 0
0.3333333432 -0.0733333304 0
0.3199999928 -0.0733333304 0
0.3066666724 -0.0733333304 0
0.293333322 -0.0733333304 0
0.2800000012 -0.0733333304 0
0.2666666804 -0.0733333304 0
0.25333333 -0.0733333304 0
0.2399999948 -0.0733333304 0
0.226666674 -0.0733333304 0
0.2133333384 -0.0733333304 0
0.2000000028 -0.0733333304 0
0.1866666676 -0.0733333304 0
0.173333332 -0.0733333304 0
0.1599999964 -0.0733333304 0
0.1466666608 -0.0733333304 0
0.1333333404 -0.0733333304 0
0.1199999972 -0.0733333304 0
0.1066666692 -0.0733333304 0
0.0933333336 -0.0733333304 0
0.0799999984 -0.0733333304 0
0.06666667 -0.0733333304 0
0.0533333348 -0.0733333304 0
0.03999999912 -0.0733333304 0
0.02666666732 -0.0733333304 0
0.01333333364 -0.0733333304 0
0.0 -0.0733333304 0
0.400000004 -0.086666666 0
0.3866666556 -0.086666666 0
0.3733333348 -0.086666666 0
0.3600000144 -0.086666666 0
0.346666664 -0.086666666 0
0.3333333432 -0.086666666 0
0.3199999928 -0.086666666 0
0.3066666724 -0.086666666 0
0.293333322 -0.086666666 0
0.2800000012 -0.086666666 0
0.2666666804 -0.086666666 0
0.25333333 -0.086666666 0
0.2399999948 -0.086666666 0
0.226666674 -0.086666666 0
0.2133333384 -0.086666666 0
0.2000000028 -0.086666666 0
0.1866666676 -0.086666666 0
0.173333332 -0.086666666 0
0.1599999964 -0.086666666 0
0.1466666608 -0.086666666 0
0.1333333404 -0.086666666 0
0.1199999972 -0.086666666 0
0.1066666692 -0.086666666 0
0.0933333336 -0.086666666 0
0.0799999984 -0.086666666 0
0.06666667 -0.086666666 0
0.0533333348 -0.086666666 0
0.03999999912 -0.086666666 0
0.02666666732 -0.086666666 0
0.01333333364 -0.086666666 0
0.0 -0.086666666 0
0.400000004 -0.1000000016 0
0.3866666556 -0.1000000016 0
0.3733333348 -0.1000000016 0
0.3600000144 -0.1000000016 0
0.346666664 -0.1000000016 0
0.3333333432 -0.1000000016 0
0.3199999928 -0.1000000016 0
0.3066666724 -0.1000000016 0
0.293333322 -0.1000000016 0
0.2800000012 -0.1000000016 0
0.2666666804 -0.1000000016 0
0.25333333 -0.1000000016 0
0.2399999948 -0.1000000016 0
0.226666674 -0.1000000016 0
0.2133333384 -0.1000000016 0
0.2000000028 -0.1000000016 0
0.1866666676 -0.1000000016 0
0.173333332 -0.1000000016 0
0.1599999964 -0.1000000016 0
0.1466666608 -0.1000000016 0
0.1333333404 -0.1000000016 0
0.1199999972 -0.1000000016 0
0.1066666692 -0.1000000016 0
0.0933333336 -0.1000000016 0
0.0799999984 -0.1000000016 0
0.06666667 -0.1000000016 0
0.0533333348 -0.1000000016 0
0.03999999912 -0.1000000016 0
0.02666666732 -0.1000000016 0
0.01333333364 -0.1000000016 0
0.0 -0.1000000016 0
0.400000004 -0.1133333372 0
0.3866666556 -0.1133333372 0
0.3733333348 -0.1133333372 0
0.3600000144 -0.1133333372 0
0.346666664 -0.1133333372 0
0.3333333432 -0.1133333372 0
0.3199999928 -0.1133333372 0
0.3066666724 -0.1133333372 0
0.293333322 -0.1133333372 0
0.2800000012 -0.1133333372 0
0.2666666804 -0.1133333372 0
0.25333333 -0.1133333372 0
0.2399999948 -0.1133333372 0
0.226666674 -0.1133333372 0
0.2133333384 -0.1133333372 0
0.2000000028 -0.1133333372 0
0.1866666676 -0.1133333372 0
0.173333332 -0.1133333372 0
0.1599999964 -0.1133333372 0
0.1466666608 -0.1133333372 0
0.1333333404 -0.1133333372 0
0.1199999972 -0.1133333372 0
0.1066666692 -0.1133333372 0
0.0933333336 -0.1133333372 0
0.0799999984 -0.1133333372 0
0.06666667 -0.1133333372 0
0.0533333348 -0.1133333372 0
0.03999999912 -0.1133333372 0
0.02666666732 -0.1133333372 0
0.01333333364 -0.1133333372 0
0.0 -0.1133333372 0
0.400000004 -0.1266666652 0
0.3866666556 -0.1266666652 0
0.3733333348 -0.1266666652 0
[...]
POINT_DATA 961
SCALARS Temp float 1
LOOKUP_TABLE default
0.7474533111217814
0.7773069745373344
0.7987313476899434
0.8143092768931
0.8257236463004924
0.8341284515898639
0.8403452691622638
0.8449654407898987
0.8484193708489215
0.8510224229293443
0.853008412831259
0.8545528327793196
0.855789796007557
0.8568252242844014
0.8577466877300947
0.858631210662407
0.8595524196367724
0.8605871143883261
0.8618221709846977
0.8633624391387407
0.8653403598999936
0.8679286277326683
0.8713563307224446
0.8759318829538728
0.8820738114367741
0.8903544480560024
0.9015621775978192
0.9167925051175783
0.9375867700855008
0.9661818921304495
1.0061262121651948
0.7889205296855331
0.8181941345651139
0.8393884026560979
0.8548810683551475
0.8662562524276785
0.8746449792644853
0.8808569630099403
0.8854778996150372
0.888935243174056
0.891542822014068
0.8935336635476091
0.8950828889634247
0.8963244800166286
0.8973643553446987
0.89829015326647
0.8991790082836185
0.9001046724457656
0.9011440703154754
0.9023841832433999
0.9039299189664822
0.905913685387017
0.9085079686095368
0.9119413460770351
0.9165211628866303
0.9226638765602282
0.9309378769119709
0.9421239742049394
0.9573020168222052
0.9779807464649933
1.0062843335777734
1.0452894384776077
2.73037454996825
2.734723766457149
2.7468451698097924
2.758025089963715
2.7672703763376187
2.7746266212281308
2.7803868186731258
2.784867276951381
2.7883485655927314
2.7910635469268747
2.7932006142911137
2.7949112386362733
2.7963181477457395
2.797522976401722
2.798613074722546
2.7996675959302593
2.8007631582321846
2.801979397649885
2.8034047118051633
2.805142551550655
2.8073186117128
2.8100891590009107
2.813650640610734
2.818250195816805
2.82419542898524
2.831858432408716
2.8416596483789185
2.8539886471319558
2.868905394017629
2.8850744853263994
2.8908793567476296
4.6476289699158055
4.6500025293628955
4.655828264373194
4.663107970616104
4.6700106409924365
4.675995605800187
4.680974982258983
4.685032476633704
4.688306550935181
4.690943133565952
4.6930775894773245
4.694829332533867
4.696302053733654
4.697586365902851
4.698763387400299
4.699908672178337
4.701096278955899
4.702402919519321
4.703912219442135
4.705719102513404
4.707934205443184
4.710688015243507
4.714133823189384
4.7184476511256
4.723820753114891
4.730435210803809
4.73840068283613
4.747598096166574
4.757303560608457
4.765072870714841
4.7682382860935135
6.559216232435246
6.560479557153794
6.563893869743307
6.56851697385662
6.5734406100053295
6.578067453804975
6.582151628788339
6.585635046968573
6.58855112263154
6.590972598602752
6.592985227960197
6.594675254806208
6.59612430296374
6.597408200350367
6.598597839620751
6.599761105915787
6.600965354914137
6.6022801220675955
6.603779856899358
6.605546440957053
6.607671098606585
6.610255006616022
6.613407223517699
6.617237529005554
6.621839424930376
6.62725469705178
6.633403655438332
6.639956278010693
6.646114001566175
6.650663632843909
6.6523473566569225
8.467380752289507
8.468150358018626
8.470279910762352
8.47332905195966
8.476788114797747
8.480250520199197
8.483467972642334
8.486328409198498
8.488805891871475
8.490922789501601
8.492725822038828
8.494272141831289
8.495621946791983
8.49683511867546
8.497970231334076
8.499084938127362
8.500237115986328
8.501486316450888
8.502895177704374
8.504530412350205
8.50646283626553
8.508765625137709
8.511509414314357
8.514752156690976
8.51852029463818
8.52277652119972
8.527369201191368
8.531965296845238
8.536020961936643
8.53885514657513
8.539879667286302
10.373237869302223
10.373728186902339
10.37511057633974
10.377154312935657
10.379570969071912
10.382097096549314
10.384541616306757
10.386792499386406
10.388801328916554
10.390562525048807
10.392096461400996
10.393437773769604
10.39462810312879
10.395712057743067
10.39673530086655
10.397743980599728
10.3987849321058
10.399906190409306
10.401157428653002
10.402589900581638
10.404255349228011
10.406203150334061
10.408474603464564
10.411093025463067
10.414047943920673
10.417272350609446
10.420614896766597
10.423819125160806
10.42653239162574
10.428369025349035
10.4290206796759
12.277278535461463
12.277594530222208
12.278495318847229
12.279854972311634
12.28150715556194
12.283287485067824
12.285063317033298
12.28674537431899
12.288285292172963
12.289666510141062
12.290894307334884
12.291987606143087
12.292973183326001
12.29388202133602
12.294747249870838
12.295603171890246
12.296484941921006
12.29742850592902
12.29847045827675
12.29964744285918
12.300994651814214
12.302542876141555
12.304313407175634
12.306310151965151
12.308508543414373
12.310842082283127
12.313190121990027
12.315374469009281
12.317174892325816
12.318368810017038
12.318787814588827
14.179745986484992
14.179941236666666
14.180501926597927
14.181359983991337
14.182422388587465
14.183592455870787
14.184786873327502
14.18594464322458
14.187028505641507
14.1880215858837
14.18892232278867
14.18973955790732
14.190488666187422
14.191188881427589
14.191861621737582
14.192529547613972
14.193216078829554
14.193945094575511
14.194740563994664
14.195625835116392
14.196622273441704
14.19774691014008
14.199008727313533
14.200403394480315
14.201906615578405
14.20346725398675
14.205002818685502
14.206401278369281
14.207532987957034
14.20827337665732
14.208531347879497
16.080758167510723
16.08086056721373
16.08115628493973
16.081613797062044
16.082189089350894
16.08283493266093
16.083508863264626
16.084178019633942
16.084820680139998
16.085425371261728
16.085988814556856
16.08651364172836
16.087006427770138
16.08747622943455
16.087933594830318
16.088389940286376
16.0888571657588
16.089347363958254
16.089872487597034
16.09044382915863
16.09107115507655
16.091761336747982
16.092516330546378
16.09333050821353
16.094187558900604
16.09505769435319
16.095896440520082
16.096646644030866
16.097244923353603
16.097632292798806
16.097766538829006
17.980371073974723
17.980393233731803
17.98045839037089
17.980562817793604
17.98070103354121
17.980866655871917
17.9810532503895
17.98125498568897
17.98146703436128
17.98168571999809
17.9819084883281
17.982133766444647
17.982360776246292
17.982589344483873
17.9828197228392
17.98305242403141
17.983288073001276
17.98352726069328
17.98377039071819
17.984017507688016
17.98426809813313
17.98452086309236
17.984773465480338
17.98502228804376
17.985262246057875
17.985486744325193
17.985687877043212
17.985856956387416
17.985985390365663
17.986065808490324
17.98609320633112
18.086356588346575
18.08637501290028
18.08642938761442
18.08651715668575
18.0866344906026
18.086776810218765
18.086939333471914
18.08711753383567
18.087307461917927
18.087505908422457
18.087710444258647
18.087919366167075
18.088131589734783
18.08834652162804
18.088563923461003
18.088783776432038
18.08900615086751
18.089231074280914
18.089458394279376
18.08968763151649
18.089917820240988
18.09014734155441
18.090373756824775
18.0905936740926
18.090802678362362
18.09099538309207
18.091165652425946
18.091307025768934
18.09141333286515
18.091479420356293
18.091501852142702
18.192230204978856
18.192245844786683
18.192292133249033
18.19236726314042
18.192468486366995
18.192592444088707
18.192735526247326
18.192894191084886
18.193065211588987
18.19324582306384
18.19343378824489
18.193627388990826
18.193825369852252
18.194026855665484
18.194231252248784
18.194438139413116
18.194647162747366
18.194857921612275
18.1950698537148
18.195282115689675
18.1954934611079
18.195702123470745
18.19590571184011
18.196101145931454
18.196284649390385
18.19645183643022
18.196597914274406
18.196718008988732
18.196807595479235
18.196862975169612
18.196881717742652
18.297997198159422
18.29801071486676
18.298050808893088
18.298116165797982
18.29820476206512
18.298314078561653
18.29844134128475
18.298583744797753
18.298738637214896
18.298903643076724
18.299076732142137
18.299256233375612
18.299440809064173
18.299629403945318
18.299821174959447
18.300015409633566
18.30021144018598
18.30040855288773
18.300605895386482
18.30080238383302
18.3009966130888
18.301186777928514
18.301370611374423
18.301545360952105
18.30170781255974
18.301854383205367
18.301981290929564
18.30208479978652
18.302161521847655
18.302208737096315
18.302224679659695
18.40366150276758
18.40367337139749
18.403708638271304
18.40376632121257
18.403844892168852
18.403942418461497
18.404056726831765
18.404185560731875
18.40432671804229
18.404478149209766
18.404638020494303
18.404804737098623
18.40497693496911
18.40515345119062
18.40533327579399
18.405515491451027
18.405699207879643
18.405883491438846
18.4060672937059
18.40624938198743
18.4064282756219
18.406602195315415
18.406769029721517
18.40692633507801
18.40707137158209
18.40720118943154
18.407312765894783
18.407403188044174
18.40746986660132
18.407510754024806
18.407524534504187
18.509226066151268
18.509236637732773
18.509268093539113
18.509319679937594
18.509390213555314
18.509478176697677
18.50958183102331
18.509699329217003
18.50982881742134
18.509968511954394
18.510116753895904
18.510272034543124
18.51043299701612
18.51059842072981
18.51076718954925
18.510938248673277
18.511110556406955
18.511283031547013
18.511454500453482
18.511623647041127
18.511788969411818
18.51194874931251
18.512101036872473
18.512243662686082
18.51237427719989
18.512490425513633
18.512589655797132
18.51266965547997
18.512728404220052
18.51276432515969
18.51277641382671
18.611280455657454
18.611289986737624
18.611318376905103
18.611365032716304
18.611429014669902
18.61150910287683
18.611603877114018
18.611711796867542
18.611831277796654
18.611960751099854
18.612098709175267
18.612243730160184
18.612394484684312
18.612549729547517
18.612708287806765
18.612869019134468
18.613030785829004
18.613192415074245
18.61335266133854
18.613510171963682
18.613663459188626
18.613810883690594
18.613950650698865
18.614080828051947
18.614199383993693
18.614304250094143
18.614393406266917
18.614464982621122
18.614517370121987
18.614549327231426
18.614560069124444
18.706391067153866
18.706399745321786
18.70642561647166
18.706468201508052
18.706526736421505
18.70660021826192
18.706687462408627
18.70678716053193
18.70689793806578
18.707018400009737
18.7071471685816
18.707282905518795
18.707424321313333
18.707570174854308
18.707719262128123
18.70787039691601
18.708022388111118
18.708174013961372
18.708323996720736
18.708470980355703
18.708613513963833
18.708750044992435
18.708878922284285
18.70899841641976
18.709106753986028
18.70920216964426
18.709282972675727
18.709347623630187
18.709394815340154
18.709423549298794
18.709433198557434
18.794528501882827
18.794536472983875
18.79456025161089
18.794599441513803
18.794653406714986
18.79472130422241
18.79480212565993
18.794894739714678
18.79499793576298
18.795110459297028
18.79523104287187
18.795358425835882
18.79549136457932
18.79562863601572
18.795769032452558
18.795911350092304
18.79605437511232
18.796196867295215
18.796337544207653
18.796475068103298
18.79660803762754
18.796734987579708
18.796854396042047
18.796964705011394
18.79706435060776
18.79715180589795
18.797225633147168
18.797284542000245
18.797327449556395
18.797353535932054
18.797362289391458
18.875668232944935
18.87567561278666
18.875697638631195
18.87573397506435
18.875784080704385
18.875847231860522
18.87592255330571
18.87600904975802
18.87610563941893
18.87621118157114
18.876324502125286
18.87644441091175
18.876569712170067
18.876699210482943
18.876831710038026
18.876966008939192
18.87710089194461
18.8772351212877
18.877367428102335
18.877496506170854
18.877621009560375
18.877739556735783
18.877850739977873
18.877953145304446
18.878045378765066
18.878126101692622
18.878194072019415
18.87824818891885
18.878287537974064
18.8783114322448
18.878319445216025
18.949790273429656
18.94979715592226
18.949817705283813
18.949851631320882
18.949898463355122
18.94995756762427
18.95002817044393
18.950109381896127
18.950200222015336
18.950299642530553
18.95040654816716
18.950519811816946
18.950638284889607
18.950760804796555
18.950886197316898
18.951013275183
18.95114083579303
18.951267657437505
18.95139249613367
18.95151408438253
18.95163113298846
18.951742338008042
18.95184639134879
18.951941999545802
18.952027906580152
18.952102923071774
18.952165959285356
18.952216059826974
18.952252438123757
18.952274507284006
18.95228190457967
19.01687877706702
19.016885239980983
19.016904542271813
19.01693642772128
19.01698047903792
19.017036130890922
19.01710268769331
19.017179341726692
19.0172651939642
19.01735927145866
19.01746054535935
19.017567944323304
19.01768036456481
19.017796678302435
19.017915738302392
19.018036379573278
19.018157420739556
19.018277664265902
19.018395897262852
19.018510893852522
19.018621419893478
19.018726241732015
19.018824137311167
19.018913913681097
19.01899442686758
19.019064606289117
19.019123481472786
19.01917020942956
19.01920410141875
19.019224646553294
19.01923153033043
19.076921978537918
19.07692808763823
19.0769463373099
19.076976497085337
19.077018190322143
19.077070904164554
19.07713400350122
19.07720674510362
19.077288294533417
19.077377740307703
19.077474109401006
19.077576379241037
19.07768348740686
19.077794340658023
19.07790782099136
19.078022789572
19.07813809076353
19.07825255526449
19.0783650037856
19.078474251975614
19.078579117130932
19.078678428052775
19.07877103627575
19.07885583235301
19.078931763292314
19.078997853247778
19.079053225487716
19.07909712436882
19.079128936502286
19.07914820916193
19.07915466459121
19.129910930859353
19.12991674292431
19.1299341082028
19.129962815861777
19.13000252038249
19.13005274934912
19.130112914673145
19.130182323869647
19.13026019410598
19.130345663990806
19.130437807166903
19.130535643190797
19.13063814688769
19.130744257716813
19.130852886868375
19.130962922784338
19.131073237089204
19.13118268981801
19.13129013513839
19.131394428064844
19.131494432498588
19.131589031729852
19.13167713957072
19.131757715535123
19.131829780310092
19.13189243356561
19.131944872347958
19.13198640906598
19.13201648857976
19.13203470286478
19.13204080230068
19.175839959305893
19.175845524355953
19.17586215370859
19.17588965153015
19.17592769616782
19.175975846397126
19.17603355069005
19.176100156436735
19.176174921910775
19.17625702631483
19.176345581935927
19.17643964415911
19.17653822051409
19.17664028022095
19.17674476199167
19.176850580666514
19.176956634485332
19.177061811794726
19.17716499820449
19.177265084529925
19.17736097570419
19.177451601627695
19.17753592810031
19.177612971049328
19.177681810440486
19.177741605877838
19.177791612317513
19.17783119511316
19.177859844132012
19.177877185715257
19.17788299180125
19.214705164573072
19.21471052755029
19.214726554571243
19.214753061210395
19.21478974402698
19.21483618572158
19.214891863007594
19.21495615436429
19.215028350491824
19.2151076630882
19.21519323593323
19.215284154241456
19.215379453446534
19.215478128831165
19.21557914379779
19.215681437275947
19.215783931923333
19.215885541862455
19.215985180825566
19.216081770924806
19.21617425212182
19.21626159323894
19.21634280265466
19.21641694174134
19.216483137559734
19.216540596783947
19.216588619422424
19.216626611706737
19.216654098048355
19.216670731050314
19.21667629907882
19.246504635574293
19.246509837622177
19.246525384764766
19.2465511011281
19.246586696962165
19.246631773032405
19.24668582750426
19.246748262658002
19.246818394263304
19.246895459445795
19.24697862698673
19.24706700618227
19.247159655415366
19.247255591813733
19.247353799826058
19.247453239151955
19.24755285357458
19.24765157939898
19.247748354264285
19.247842126459112
19.247931864735904
19.248016569376
19.248095282654674
19.248167101647574
19.24823118999961
19.2482867906043
19.24833323786587
19.248369969027394
19.248396534577108
19.24841260687029
19.248417986599144
19.271237554863355
19.271242634326697
19.27125781582547
19.271282929693484
19.271317696142304
19.271361729128913
19.271414542560116
19.27147555629224
19.271544104753417
19.2716194441756
19.271700762337645
19.271787187068977
19.27187779465826
19.271971619510662
19.272067662916754
19.272164901326157
19.27226229559633
19.272358799894896
19.27245337094832
19.272544977705422
19.2726326113566
19.27271529639704
19.272792100893938
19.272862148813005
19.27292463111021
19.272978817515465
19.273024067759323
19.273059841803413
19.27308570916343
19.273101356564823
19.273106593649903
19.2889036547956
19.28890864802048
19.288923572234573
19.28894826198506
19.288982444256646
19.28902574200022
19.289077679894547
19.289137689881095
19.289205119292802
19.289279237669874
19.289359246132392
19.289444285644567
19.28953344530824
19.289625772008627
19.289720279298262
19.28981595588444
19.289911775137263
19.29000670428155
19.29009971391602
19.290189787886703
19.29027593342122
19.29035719216928
19.29043265031984
19.29050145059175
19.29056280286402
19.290615995357236
19.290660405170687
19.29069550778703
19.290720885682333
19.290736235348394
19.290741372501277
19.299503187021095
19.299508129014416
19.299522900363307
19.299547338059234
19.299581173020904
19.29962403343263
19.29967545025689
19.2997348625073
19.299801625098247
19.29987501542489
19.29995424252389
19.300038455199754
19.300126750249827
19.300218182098966
19.300311771743992
19.30040651535714
19.30050139393503
19.300595382648527
19.300687460507902
19.30077662034787
19.300861879018697
19.300942288405167
19.301016945450687
19.301085003949193
19.301145684907322
19.301198287378924
19.301242198607625
19.301276903118268
19.30130199092214
19.3013171641808
19.301322242132933
19.303036322742255
19.303041247742037
19.303055968382168
19.30308032245534
19.303114042170606
19.303156757430457
19.30320800126285
19.303267215009885
19.30333375608686
19.303406904486117
19.303485871868855
19.303569809646266
19.30365781718194
19.3037489514222
19.303842235859186
19.303936669171165
19.304031234916014
19.30412491093108
19.30421667904454
19.304305535095125
19.304390499140364
19.30447062646697
19.30454501758359
19.30461282994688
19.30467328823564
19.304725695072293
19.30476944103692
19.30480401362447
19.30482900531891
19.3048441201409
19.30484917848364
