# vtk DataFile Version 2.0
Unstructured Grid Example
ASCII
DATASET UNSTRUCTURED_GRID

POINTS 961 float
0.400000004 0.01999999956 0
0.3866666556 0.01999999956 0
0.3733333348 0.01999999956 0
0.3600000144 0.01999999956 0
0.346666664 0.01999999956 0
0.3333333432 0.01999999956 0
0.3199999928 0.01999999956 0
0.3066666724 0.01999999956 0
0.293333322 0.01999999956 0
0.2800000012 0.01999999956 0
0.2666666804 0.01999999956 0
0.25333333 0.01999999956 0
0.2399999948 0.01999999956 0
0.226666674 0.01999999956 0
0.2133333384 0.01999999956 0
0.2000000028 0.01999999956 0
0.1866666676 0.01999999956 0
0.173333332 0.01999999956 0
0.1599999964 0.01999999956 0
0.1466666608 0.01999999956 0
0.1333333404 0.01999999956 0
0.1199999972 0.01999999956 0
0.1066666692 0.01999999956 0
0.0933333336 0.01999999956 0
0.0799999984 0.01999999956 0
0.06666667 0.01999999956 0
0.0533333348 0.01999999956 0
0.03999999912 0.01999999956 0
0.02666666732 0.01999999956 0
0.01333333364 0.01999999956 0
0.0 0.01999999956 0
0.400000004 0.00666666684 0
0.3866666556 0.00666666684 0
0.3733333348 0.00666666684 0
0.3600000144 0.00666666684 0
0.346666664 0.00666666684 0
0.3333333432 0.00666666684 0
0.3199999928 0.00666666684 0
0.3066666724 0.00666666684 0
0.293333322 0.00666666684 0
0.2800000012 0.00666666684 0
0.2666666804 0.00666666684 0
0.25333333 0.00666666684 0
0.2399999948 0.00666666684 0
0.226666674 0.00666666684 0
0.2133333384 0.00666666684 0
0.2000000028 0.00666666684 0
0.1866666676 0.00666666684 0
0.173333332 0.00666666684 0
0.1599999964 0.00666666684 0
0.1466666608 0.00666666684 0
0.1333333404 0.00666666684 0
0.1199999972 0.00666666684 0
0.1066666692 0.00666666684 0
0.0933333336 0.00666666684 0
0.0799999984 0.00666666684 0
0.06666667 0.00666666684 0
0.0533333348 0.00666666684 0
0.03999999912 0.00666666684 0
0.02666666732 0.00666666684 0
0.01333333364 0.00666666684 0
0.0 0.00666666684 0
0.400000004 -0.00666666684 0
0.3866666556 -0.00666666684 0
0.3733333348 -0.00666666684 0
0.3600000144 -0.00666666684 0
0.346666664 -0.00666666684 0
0.3333333432 -0.00666666684 0
0.3199999928 -0.00666666684 0
0.3066666724 -0.00666666684 0
0.293333322 -0.00666666684 0
0.2800000012 -0.00666666684 0
0.2666666804 -0.00666666684 0
0.25333333 -0.00666666684 0
0.2399999948 -0.00666666684 0
0.226666674 -0.00666666684 0
0.2133333384 -0.00666666684 0
0.2000000028 -0.00666666684 0
0.1866666676 -0.00666666684 0
0.173333332 -0.00666666684 0
0.1599999964 -0.00666666684 0
0.1466666608 -0.00666666684 0
0.1333333404 -0.00666666684 0
0.1199999972 -0.00666666684 0
0.1066666692 -0.00666666684 0
0.0933333336 -0.00666666684 0
0.0799999984 -0.00666666684 0
0.06666667 -0.00666666684 0
0.0533333348 -0.00666666684 0
0.03999999912 -0.00666666684 0
0.02666666732 -0.00666666684 0
0.01333333364 -0.00666666684 0
0.0 -0.00666666684 0
0.400000004 -0.01999999956 0
0.3866666556 -0.01999999956 0
0.3733333348 -0.01999999956 0
0.3600000144 -0.01999999956 0
0.346666664 -0.01999999956 0
0.3333333432 -0.01999999956 0
0.3199999928 -0.01999999956 0
0.3066666724 -0.01999999956 0
0.293333322 -0.01999999956 0
0.2800000012 -0.01999999956 0
0.2666666804 -0.01999999956 0
0.25333333 -0.01999999956 0
0.2399999948 -0.01999999956 0
0.226666674 -0.01999999956 0
0.2133333384 -0.01999999956 0
0.2000000028 -0.01999999956 0
0.1866666676 -0.01999999956 0
0.173333332 -0.01999999956 0
0.1599999964 -0.01999999956 0
0.1466666608 -0.01999999956 0
0.1333333404 -0.01999999956 0
0.1199999972 -0.01999999956 0
0.1066666692 -0.01999999956 0
0.0933333336 -0.01999999956 0
0.0799999984 -0.01999999956 0
0.06666667 -0.01999999956 0
0.0533333348 -0.01999999956 0
0.03999999912 -0.01999999956 0
0.02666666732 -0.01999999956 0
0.01333333364 -0.01999999956 0
0.0 -0.01999999956 0
0.400000004 -0.03333333508 0
0.3866666556 -0.03333333508 0
0.3733333348 -0.03333333508 0
0.3600000144 -0.03333333508 0
0.346666664 -0.03333333508 0
0.3333333432 -0.03333333508 0
0.3199999928 -0.03333333508 0
0.3066666724 -0.03333333508 0
0.293333322 -0.03333333508 0
0.2800000012 -0.03333333508 0
0.2666666804 -0.03333333508 0
0.25333333 -0.03333333508 0
0.2399999948 -0.03333333508 0
0.226666674 -0.03333333508 0
0.2133333384 -0.03333333508 0
0.2000000028 -0.03333333508 0
0.1866666676 -0.03333333508 0
0.173333332 -0.03333333508 0
0.1599999964 -0.03333333508 0
0.1466666608 -0.03333333508 0
0.1333333404 -0.03333333508 0
0.1199999972 -0.03333333508 0
0.1066666692 -0.03333333508 0
0.0933333336 -0.03333333508 0
0.0799999984 -0.03333333508 0
0.06666667 -0.03333333508 0
0.0533333348 -0.03333333508 0
0.03999999912 -0.03333333508 0
0.02666666732 -0.03333333508 0
0.01333333364 -0.03333333508 0
0.0 -0.03333333508 0
0.400000004 -0.0466666668 0
0.3866666556 -0.0466666668 0
0.3733333348 -0.0466666668 0
0.3600000144 -0.0466666668 0
0.346666664 -0.0466666668 0
0.3333333432 -0.0466666668 0
0.3199999928 -0.0466666668 0
0.3066666724 -0.0466666668 0
0.293333322 -0.0466666668 0
0.2800000012 -0.0466666668 0
0.2666666804 -0.0466666668 0
0.25333333 -0.0466666668 0
0.2399999948 -0.0466666668 0
0.226666674 -0.0466666668 0
0.2133333384 -0.0466666668 0
0.2000000028 -0.0466666668 0
0.1866666676 -0.0466666668 0
0.173333332 -0.0466666668 0
0.1599999964 -0.0466666668 0
0.1466666608 -0.0466666668 0
0.1333333404 -0.0466666668 0
0.1199999972 -0.0466666668 0
0.1066666692 -0.0466666668 0
0.0933333336 -0.0466666668 0
0.0799999984 -0.0466666668 0
0.06666667 -0.0466666668 0
0.0533333348 -0.0466666668 0
0.03999999912 -0.0466666668 0
0.02666666732 -0.0466666668 0
0.01333333364 -0.0466666668 0
0.0 -0.0466666668 0
0.400000004 -0.0599999988 0
0.3866666556 -0.0599999988 0
0.3733333348 -0.0599999988 0
0.3600000144 -0.0599999988 0
0.346666664 -0.0599999988 0
0.3333333432 -0.0599999988 0
0.3199999928 -0.0599999988 0
0.3066666724 -0.0599999988 0
0.293333322 -0.0599999988 0
0.2800000012 -0.0599999988 0
0.2666666804 -0.0599999988 0
0.25333333 -0.0599999988 0
0.2399999948 -0.0599999988 0
0.226666674 -0.0599999988 0
0.2133333384 -0.0599999988 0
0.2000000028 -0.0599999988 0
0.1866666676 -0.0599999988 0
0.173333332 -0.0599999988 0
0.1599999964 -0.0599999988 0
0.1466666608 -0.0599999988 0
0.1333333404 -0.0599999988 0
0.1199999972 -0.0599999988 0
0.1066666692 -0.0599999988 0
0.0933333336 -0.0599999988 0
0.0799999984 -0.0599999988 0
0.06666667 -0.0599999988 0
0.0533333348 -0.0599999988 0
0.03999999912 -0.0599999988 0
0.02666666732 -0.0599999988 0
0.01333333364 -0.0599999988 0
0.0 -0.0599999988 0
0.400000004 -0.0733333304 0
0.3866666556 -0.0733333304 0
0.3733333348 -0.0733333304 0
0.3600000144 -0.0733333304 0
0.346666664 -0.0733333304 0
0.3333333432 -0.0733333304 0
0.3199999928 -0.0733333304 0
0.3066666724 -0.0733333304 0
0.293333322 -0.0733333304 0
0.2800000012 -0.0733333304 0
0.2666666804 -0.0733333304 0
0.25333333 -0.0733333304 0
0.2399999948 -0.0733333304 0
0.226666674 -0.0733333304 0
0.2133333384 -0.0733333304 0
0.2000000028 -0.0733333304 0
0.1866666676 -0.0733333304 0
0.173333332 -0.0733333304 0
0.1599999964 -0.0733333304 0
0.1466666608 -0.0733333304 0
0.1333333404 -0.0733333304 0
0.1199999972 -0.0733333304 0
0.1066666692 -0.0733333304 0
0.0933333336 -0.0733333304 0
0.0799999984 -0.0733333304 0
0.06666667 -0.0733333304 0
0.0533333348 -0.0733333304 0
0.03999999912 -0.0733333304 0
0.02666666732 -0.0733333304 0
0.01333333364 -0.0733333304 0
0.0 -0.0733333304 0
0.400000004 -0.086666666 0
0.3866666556 -0.086666666 0
0.3733333348 -0.086666666 0
0.3600000144 -0.086666666 0
0.346666664 -0.086666666 0
0.3333333432 -0.086666666 0
0.3199999928 -0.086666666 0
0.3066666724 -0.086666666 0
0.293333322 -0.086666666 0
0.2800000012 -0.086666666 0
0.2666666804 -0.086666666 0
0.25333333 -0.086666666 0
0.2399999948 -0.086666666 0
0.226666674 -0.086666666 0
0.2133333384 -0.086666666 0
0.2000000028 -0.086666666 0
0.1866666676 -0.086666666 0
0.173333332 -0.086666666 0
0.1599999964 -0.086666666 0
0.1466666608 -0.086666666 0
0.1333333404 -0.086666666 0
0.1199999972 -0.086666666 0
0.1066666692 -0.086666666 0
0.0933333336 -0.086666666 0
0.0799999984 -0.086666666 0
0.06666667 -0.086666666 0
0.0533333348 -0.086666666 0
0.03999999912 -0.086666666 0
0.02666666732 -0.086666666 0
0.01333333364 -0.086666666 0
0.0 -0.086666666 0
0.400000004 -0.1000000016 0
0.3866666556 -0.1000000016 0
0.3733333348 -0.1000000016 0
0.3600000144 -0.1000000016 0
0.346666664 -0.1000000016 0
0.3333333432 -0.1000000016 0
0.3199999928 -0.1000000016 0
0.3066666724 -0.1000000016 0
0.293333322 -0.1000000016 0
0.2800000012 -0.1000000016 0
0.2666666804 -0.1000000016 0
0.25333333 -0.1000000016 0
0.2399999948 -0.1000000016 0
0.226666674 -0.1000000016 0
0.2133333384 -0.1000000016 0
0.2000000028 -0.1000000016 0
0.1866666676 -0.1000000016 0
0.173333332 -0.1000000016 0
0.1599999964 -0.1000000016 0
0.1466666608 -0.1000000016 0
0.1333333404 -0.1000000016 0
0.1199999972 -0.1000000016 0
0.1066666692 -0.1000000016 0
0.0933333336 -0.1000000016 0
0.0799999984 -0.1000000016 0
0.06666667 -0.1000000016 0
0.0533333348 -0.1000000016 0
0.03999999912 -0.1000000016 0
0.02666666732 -0.1000000016 0
0.01333333364 -0.1000000016 0
0.0 -0.1000000016 0
0.400000004 -0.1133333372 0
0.3866666556 -0.1133333372 0
0.3733333348 -0.1133333372 0
0.3600000144 -0.1133333372 0
0.346666664 -0.1133333372 0
0.3333333432 -0.1133333372 0
0.3199999928 -0.1133333372 0
0.3066666724 -0.1133333372 0
0.293333322 -0.1133333372 0
0.2800000012 -0.1133333372 0
0.2666666804 -0.1133333372 0
0.25333333 -0.1133333372 0
0.2399999948 -0.1133333372 0
0.226666674 -0.1133333372 0
0.2133333384 -0.1133333372 0
0.2000000028 -0.1133333372 0
0.1866666676 -0.1133333372 0
0.173333332 -0.1133333372 0
0.1599999964 -0.1133333372 0
0.1466666608 -0.1133333372 0
0.1333333404 -0.1133333372 0
0.1199999972 -0.1133333372 0
0.1066666692 -0.1133333372 0
0.0933333336 -0.1133333372 0
0.0799999984 -0.1133333372 0
0.06666667 -0.1133333372 0
0.0533333348 -0.1133333372 0
0.03999999912 -0.1133333372 0
0.02666666732 -0.1133333372 0
0.01333333364 -0.1133333372 0
0.0 -0.1133333372 0
0.400000004 -0.1266666652 0
0.3866666556 -0.1266666652 0
0.3733333348 -0.1266666652 0
[...]
POINT_DATA 961
SCALARS Temp float 1
LOOKUP_TABLE default
0.6653789757781922
0.6919544097432939
0.7110258779239365
0.7248926944785157
0.7350530125147408
0.7425341491684916
0.7480674903406209
0.7521794596729392
0.7552532097777116
0.7575694812669694
0.7593364193696476
0.760710248850252
0.7618103584897865
0.7627310407969129
0.7635502514599974
0.7643365580674142
0.7651555031675178
0.7660754535640698
0.7671737453235097
0.7685437137810208
0.7703032550503244
0.7726060976804758
0.7756561706627191
0.7797280179268524
0.785194205221988
0.7925642153713283
0.8025398626523053
0.8160963628898411
0.8346058194094967
0.8600595515228568
0.8956162927689597
0.7022949336203015
0.7283540221410341
0.7472206472632758
0.7610115567781429
0.7711369825702017
0.7786037931668315
0.7841328149167327
0.788245445831053
0.7913222124771602
0.793642489086215
0.7954137193869143
0.7967917981806114
0.7978959975482899
0.7988206075623616
0.7996436449794198
0.8004337758366316
0.801256654764029
0.8021807600555206
0.803283521870016
0.8046583275653547
0.8064230441174207
0.8087312149655003
0.8117863149043252
0.8158619366420303
0.8213288040866238
0.828692891297187
0.8386492702795385
0.8521592200469057
0.8705658269609531
0.8957600415848206
0.9304807561735458
2.4306657342492817
2.434537191979952
2.4453270466399313
2.455278469832251
2.463507410491338
2.470054492154924
2.4751805668531652
2.479167235542478
2.4822642813035007
2.484679016548869
2.486579166619352
2.4880995883740242
2.489349551653009
2.4904195495371444
2.49138735908857
2.492323460551594
2.4932960773396253
2.4943761189220397
2.4956422936931966
2.497186709556079
2.4991212749589624
2.5015851123306336
2.5047531118037307
2.508845289012545
2.5141354859071896
2.52095495351293
2.529677989015095
2.5406514184169255
2.553928678898841
2.568321117573168
2.573488158607719
4.1374967422713205
4.1396094205583465
4.144794713363793
4.151273856703711
4.1574169324707
4.162742676180847
4.167172890338184
4.170782123545682
4.173693666697572
4.1760374569948215
4.177934028374392
4.17948971582222
4.1807968587002495
4.1819361549862135
4.182979851322385
4.18399524131551
4.185048287575329
4.186207314187354
4.187546799264956
4.189151277669734
4.191119270779009
4.193566969503445
4.1966308641133026
4.200467679129527
4.205247699412783
4.211133047177247
4.218221380001318
4.226406751817516
4.235044835605118
4.241959942750283
4.244777391503081
5.8392868016572415
5.840411086166538
5.843449535487073
5.84756343274385
5.85194428122762
5.8560603826290745
5.8596928987311605
5.862790161512688
5.865381959380667
5.867533092522424
5.86931994454625
5.870819337973439
5.872103984112263
5.873241436255769
5.874294855500898
5.87532472644961
5.876391062683666
5.877555818049857
5.878885320268723
5.880452512007713
5.882338651572533
5.884633855394111
5.887435254904352
5.890840622583316
5.894933240473318
5.899750354814742
5.905221078998054
5.9110516901515275
5.916531385838013
5.920580269519174
5.922078711172097
7.538035198509548
7.538719903122326
7.540614443527202
7.543326834481549
7.546403403519081
7.549482254485809
7.552342400480378
7.554884132970947
7.5570844154387755
7.558963217604163
7.560562189806436
7.56193227237723
7.563127119599093
7.564200106614773
7.565203446061543
7.566188532391335
7.567206959652847
7.568311812565838
7.5695589228915985
7.5710077481878315
7.572721397044893
7.574765076724645
7.57720173103799
7.580083012003285
7.583432519763172
7.587217104685505
7.591301843574171
7.595390331668591
7.598998504682507
7.601520155809287
7.602431731508351
9.234736085788043
9.235172091060754
9.236401274971723
9.238218267319546
9.240366342726192
9.242611022439732
9.244782258817777
9.246780381531831
9.248562353737615
9.250123277640595
9.251481364163416
9.25266752488384
9.25371891132096
9.25467531967811
9.255577487782267
9.256466586793668
9.257384400348316
9.258373780217077
9.259479035623446
9.260745881279538
9.262220465243125
9.263946825427045
9.26596180728587
9.26828624481795
9.270910889770917
9.273776162948826
9.276747402735781
9.279596377096688
9.282009223408307
9.283642669038759
9.28422225896237
10.92982774125538
10.93010848213526
10.930908698491729
10.932116309778515
10.933583279150804
10.935163318843221
10.936738406216644
10.938229132957732
10.939592519223613
10.940813904917915
10.941898078206727
10.942861978443634
10.943729542108247
10.944528453765155
10.945288312670327
10.946039764762208
10.946814215184835
10.947643773702538
10.94856112631502
10.949599001147046
10.950788831094009
10.95215812743363
10.953725940547987
10.955495840438331
10.95744604422296
10.959517435469397
10.961602689693603
10.963543246948978
10.9651431162304
10.966204201250925
10.966576615497264
12.623527869204416
12.623701035896946
12.62419823474803
12.624958890744217
12.625900234718095
12.626936249209804
12.627992833011088
12.629015761070951
12.629971950149589
12.630846473505553
12.63163804496135
12.632354646320978
12.633010081887699
12.633621596333066
12.634208382809074
12.634790743238515
12.635389656888554
12.636026512125966
12.636722776209508
12.637499361027078
12.638375409971955
12.639366203199112
12.640479849867464
12.641712601557737
12.64304292903626
12.644425401317942
12.64578666649433
12.647027065405792
12.648031246868669
12.64868836243412
12.648917345764405
14.315942574541554
14.316032992878958
14.316294035542352
14.316697665154779
14.317204741315543
14.317773277172485
14.318365542574751
14.31895236893354
14.319514516919618
14.320041881657568
14.320531663807202
14.32098633433031
14.321411882346494
14.321816512557007
14.322209762115474
14.32260194444714
14.323003805244625
14.32342626194709
14.323880105930591
14.324375537828853
14.324921395275679
14.32552393272359
14.326185022011186
14.326899774489199
14.327653782114107
14.328420628336218
14.329160811229592
14.329823528448255
14.330352418686354
14.330695017766276
14.33081377475003
16.007122741059657
16.007141630930313
16.007197132288407
16.007285955495558
16.00740326526313
16.007543443167176
16.007700840520926
16.007870361284407
16.008047817845295
16.008230060871114
16.00841495211351
16.008601237699033
16.008788380568262
16.008976389581004
16.009165657604076
16.009356813877254
16.00955058960202
16.00974768589866
16.009948635407724
16.01015364758611
16.010362429649334
16.010573982264155
16.01078637306861
16.010996519433952
16.011200020293483
16.011391116422743
16.011562867076808
16.011707619426726
16.011817789030502
16.01188686110486
16.011910408812373
16.10148058989428
16.10149614446011
16.101542017165674
16.101615960462883
16.101714611010202
16.10183395575306
16.10196981781734
16.10211826387723
16.102275889239984
16.10243996189368
16.102608456693833
16.102780005547515
16.102953800669507
16.10312947902048
16.10330699935218
16.10348651994636
16.103668280519855
16.103852482864298
16.104039166880202
16.104228077759508
16.104418522179202
16.104609217970083
16.104798144207837
16.104982420487225
16.10515824340949
16.105320930957582
16.105465119030246
16.105585138288816
16.10567556071537
16.105731845613477
16.105750962499652
16.195741109466372
16.195754165690452
16.195792782131498
16.195855378223424
16.195939554297357
16.196042385003143
16.196160738555754
16.196291560414615
16.19643209144541
16.196579998247785
16.196733429568653
16.19689100746317
16.197051775518705
16.197215123630645
16.197380697789182
16.19754830303475
16.19771780511465
16.197889028821752
16.198061653269043
16.19823510361846
16.19840844057289
16.19858025427023
16.19874856971625
16.198910787156237
16.19906367459379
16.19920344341981
16.19932592730273
16.199426871118806
16.199502312743707
16.199549007500295
16.199564820832165
16.28990903513626
16.289920172684358
16.289953189064942
16.290006943293342
16.290079682218632
16.2901692300825
16.290273202005864
16.290389202116863
16.290514986965466
16.290648573837103
16.290788300391526
16.290932835625245
16.2910811552399
16.291232494428158
16.291386283465897
16.291542073193668
16.291699456473538
16.291857985481634
16.292017087165135
16.292175978531816
16.292333584736923
16.292488466920076
16.292638765592212
16.29278217758361
16.29291597574265
16.293037089943414
16.29314225698476
16.29322823751493
16.29329208385874
16.293331423992175
16.29334471577339
16.383987928065125
16.383997560173466
16.384026164866125
16.384072898156127
16.384136449969233
16.384215169406396
16.38430720992148
16.38441066853945
16.384523707145004
16.384644638734105
16.384771982052378
16.384904480635626
16.385041093854966
16.385180968553634
16.385323394193247
16.385467747226592
16.38561343053593
16.385759808648608
16.385906142023195
16.38605152306463
16.386194817350955
16.386334616422353
16.386469206232682
16.38659656482378
16.38671439308597
16.386820189735733
16.38691137191025
16.386985436631374
16.387040150114885
16.38707374108786
16.3870850693296
16.477980489041034
16.477988918164638
16.478013985703264
16.478055052658522
16.47811111833788
16.47818090479713
16.47826295713833
16.4783557420824
16.478457737784534
16.478567500965298
16.478683713758066
16.47880520474496
16.478930948647864
16.47906005039582
16.47919171472499
16.479325205753213
16.479459801766048
16.479594746158853
16.479729198073542
16.479862185641075
16.47999256519379
16.480118991852027
16.48023990404014
16.480353532130117
16.48045793179376
16.48055104888589
16.480630814454813
16.480695264709354
16.480742676080904
16.48077169900581
16.48078147205242
16.568876732464982
16.5688841839306
16.568906368774062
16.56894279223374
16.568992673420713
16.569055003256427
16.56912861479867
16.569212253618744
16.569304644434222
16.56940454273846
16.56951077361632
16.569622251884212
16.569737986277293
16.56985707160471
16.569978668866266
16.570101976716554
16.570226198806598
16.570350507849394
16.57047400978115
16.570595710767815
16.570714489999858
16.570829082693695
16.5709380746297
16.571039915997417
16.57113295323596
16.571215483247013
16.571285827492392
16.571342421323983
16.57138391132348
16.571409249321995
16.57141777116705
16.653644788422685
16.653651433565365
16.65367123529906
16.653703802152215
16.653748511937625
16.65380455213562
16.653870969899316
16.65394672273948
16.6540307281909
16.654121903316664
16.65421919631693
16.654321604603314
16.65442818111608
16.654538031691303
16.654650302748927
16.654764161864115
16.65487877506454
16.654993281455962
16.655106768180314
16.65521824809846
16.655326642619677
16.655430773206273
16.65552936198613
16.655621047524892
16.655704413439757
16.655778032864117
16.655840526026168
16.65589062707918
16.655927254995092
16.655949580601686
16.65595708189052
16.732254912702775
16.73226088577922
16.732278697296948
16.73230803088927
16.73234838058777
16.732399079382596
16.732459335270196
16.732528268095727
16.732604946838418
16.732688419834368
16.732777740344858
16.732871982276045
16.732970247326545
16.733071665683404
16.73317538911596
16.73328057840612
16.733386388347064
16.733491950627922
16.733596357173493
16.733698645913158
16.733797790887934
16.73389269947886
16.733982216567213
16.734065140467756
16.734140247848796
16.734206329890064
16.7342622370678
16.73430692948784
16.734339529088906
16.73435936811161
16.73436602856276
16.804679464730533
16.804684873261944
16.80470101024118
16.804727614672352
16.804764266807226
16.80481040862858
16.804865370201135
16.804928396723774
16.804998676786006
16.80507536558091
16.805157605602588
16.80524454013566
16.80533532055316
16.805429109116243
16.805525075898966
16.805622391312205
16.805720216940365
16.80581769473962
16.80591393673876
16.80600801681155
16.806098965975337
16.80618577340195
16.806267392537404
16.806342756316084
16.80641079852592
16.80647048315579
16.806520839384092
16.806560999807434
16.806590239329413
16.806608010690702
16.806613973064124
16.87089286624158
16.870897798188263
16.870912519628718
16.87093681089824
16.870970316969636
16.87101256235136
16.87106297063563
16.871120884588166
16.871185587816665
16.871256322734943
16.871332307425465
16.871412747187634
16.871496841655983
16.871583788909298
16.871672785089384
16.871763020660364
16.87185367559472
16.871943913305966
16.872032875085317
16.872119676253206
16.872203405103402
16.87228312635797
16.872357888268667
16.872426736735633
16.8724887335154
16.872542980112733
16.872588645317087
16.872624994532167
16.872651419109747
16.87266746276262
16.872672842601204
16.93087158643006
16.930876115253856
16.930889638024933
16.93091196626422
16.930942794027423
16.930981708902515
16.93102820674574
16.931081706796633
16.931141568534347
16.931207105734696
16.931277600359234
16.931352312491974
16.931430487139153
16.93151135913414
16.931594154634134
16.93167809008607
16.931762370602673
16.931846187385933
16.93192871562951
16.93200911381277
16.932086525162468
16.932160082641857
16.932228916445847
16.932292166925283
16.932349000114137
16.932398627315802
16.932440326992342
16.932473467536493
16.932497529702378
16.932512126533197
16.93251701908008
16.98459450310565
16.98459869139848
16.984611200701593
16.984631866271265
16.984660419693533
16.984696497135555
16.984739650655477
16.984789359749662
16.984845044691177
16.98490607769061
16.984971794504023
16.98504150307027
16.985114489954995
16.985190025720613
16.98526736771806
16.985345760990707
16.98542443895572
16.985502623361285
16.985579524685214
16.98565434364759
16.98572627437997
16.98579451033825
16.985858251851905
16.985916717899553
16.98596915942369
16.98601487555368
16.986053231227043
16.986083675118735
16.986105757058056
16.986119143306194
16.986123628498618
17.03204224188912
17.032046144022413
17.032057801053753
17.03207706640846
17.03210370052179
17.03213737714676
17.032177692212883
17.03222417280974
17.032276287952833
17.032333457606207
17.032395062554954
17.03246045201528
17.03252894973656
17.03259985962548
17.032672469419335
17.032746052960185
17.032819872517663
17.0328931805579
17.032965221911493
17.03303523682676
17.033102465272748
17.033166153374605
17.033225560833174
17.0332799716675
17.0333287057402
17.03337113237515
17.033406684761683
17.033434874304287
17.03345530438388
17.033467682282772
17.033471828425665
17.073198084523348
17.073201748608728
17.07321269624601
17.07323079478938
17.073255826873876
17.073287495343457
17.073325430353563
17.073369196512182
17.073418301768243
17.073472204862934
17.07353032389262
17.073592043119916
17.07365671877101
17.07372368478259
17.07379225706521
17.07386173673333
17.073931413578837
17.07400056911513
17.074068479979317
17.074134422035712
17.074197675413394
17.074257531207444
17.07431329868271
17.07436431512768
17.074409955957314
17.07444964633012
17.074482873137683
17.074509196711638
17.074528261917322
17.074539807655
17.074543674161255
17.1080471426103
17.108050611987014
17.108060979115763
17.10807812197681
17.108101840196507
17.108131858998043
17.10816783504854
17.108209362281904
17.10825597942392
17.108307176298688
17.10836240141326
17.108421068157746
17.10848256034435
17.108546237998468
17.108611442009476
17.10867749801648
17.10874372067494
17.108809417583085
17.108873893529285
17.10893645529734
17.108996417165834
17.10905310771792
17.10910587680422
17.10915410465943
17.109197210894838
17.10923466459716
17.10926599452019
17.10929079885167
17.10930875436717
17.109319624182977
17.109323263666344
17.136577051256783
17.136580365638377
17.1365902704966
17.136606651796708
17.136629321969224
17.136658023174377
17.136692432261263
17.136732165657826
17.136776785919277
17.136825807211714
17.13687870217924
17.136934907686566
17.13699383014925
17.137054851325374
17.13711733321434
17.137180622383635
17.137244054770278
17.13730696020495
17.13736866722562
17.137428508340637
17.13748582580752
17.13753997846295
17.137590348456385
17.137636349778123
17.137677436406094
17.13771311127427
17.137742935146633
17.137766534978756
17.13778361167759
17.137793946606198
17.13779740650573
17.15877763758639
17.158780833972823
17.158790386817845
17.158806187894335
17.15882805896658
17.158855754584582
17.15888896643067
17.1589273275662
17.158970418299234
17.159017771093914
17.15906887692745
17.15912319070256
17.15918013641746
17.159239112938714
17.159299499053237
17.159360658082846
17.159421943035486
17.15948270152186
17.15954228093693
17.15960003401176
17.159655324754166
17.159707535255883
17.159756072231954
17.15980037510141
17.159839923514784
17.159874245509
17.159902925445156
17.159925611380935
17.159942021855432
17.159951951525557
17.159955275403146
17.174640849298495
17.174643962723056
17.174653268021817
17.17466866091481
17.174689969521044
17.174716956848275
17.174749324740503
17.17478671770644
17.17482872833984
17.174874901852093
17.174924742088983
17.174977716720576
17.17503326229836
17.17509079000497
17.175149690795966
17.175209340191888
17.17526910364587
17.175328341703864
17.175386415412195
17.175442692041802
17.175496551116787
17.17554739118666
17.175594636219525
17.175637743369517
17.175676210082298
17.175709581702208
17.175737458786266
17.175759503822057
17.17577544737045
17.17578509313256
17.175788321738878
17.1841610722033
17.184164136365176
17.184173294653107
17.184188445078995
17.184209419455893
17.184235985716867
17.184267851637692
17.184304668429533
17.184346035906305
17.18439150680328
17.184440592599444
17.18449276857891
17.18454747882095
17.184604141932237
17.18466215623509
17.184720904655293
17.18477976020654
17.184838091282824
17.184895267187507
17.184950663948104
17.185003670386997
17.185053694865807
17.185100171588175
17.185142568182165
17.18518039256005
17.18521320021015
17.185240601153613
17.18526226628937
17.185277933172266
17.18528741075743
17.185290582936254
17.18733484955435
17.18733789737982
17.187347006913356
17.18736207691846
17.187382940420317
17.18740936696961
17.187441066292546
17.18747769180761
17.18751884571075
17.187564083224963
17.187612918359257
17.187664828927993
17.18771926151882
17.187775637218483
17.187833356815236
17.187891805716973
17.187950359472413
17.188008389105356
17.188065266681875
17.18812037115324
17.18817309443899
17.18822284816085
17.18826906991512
17.188311230793612
17.188348842163048
17.18838146285386
17.188408706000626
17.188430245265984
17.188445820500537
17.18845524238276
17.188458395873155
