# vtk DataFile Version 2.0
Unstructured Grid Example
ASCII
DATASET UNSTRUCTURED_GRID

POINTS 961 float
0.400000004 0.01999999956 0
0.3866666556 0.01999999956 0
0.3733333348 0.01999999956 0
0.3600000144 0.01999999956 0
0.346666664 0.01999999956 0
0.3333333432 0.01999999956 0
0.3199999928 0.01999999956 0
0.3066666724 0.01999999956 0
0.293333322 0.01999999956 0
0.2800000012 0.01999999956 0
0.2666666804 0.01999999956 0
0.25333333 0.01999999956 0
0.2399999948 0.01999999956 0
0.226666674 0.01999999956 0
0.2133333384 0.01999999956 0
0.2000000028 0.01999999956 0
0.1866666676 0.01999999956 0
0.173333332 0.01999999956 0
0.1599999964 0.01999999956 0
0.1466666608 0.01999999956 0
0.1333333404 0.01999999956 0
0.1199999972 0.01999999956 0
0.1066666692 0.01999999956 0
0.0933333336 0.01999999956 0
0.0799999984 0.01999999956 0
0.06666667 0.01999999956 0
0.0533333348 0.01999999956 0
0.03999999912 0.01999999956 0
0.02666666732 0.01999999956 0
0.01333333364 0.01999999956 0
0.0 0.01999999956 0
0.400000004 0.00666666684 0
0.3866666556 0.00666666684 0
0.3733333348 0.00666666684 0
0.3600000144 0.00666666684 0
0.346666664 0.00666666684 0
0.3333333432 0.00666666684 0
0.3199999928 0.00666666684 0
0.3066666724 0.00666666684 0
0.293333322 0.00666666684 0
0.2800000012 0.00666666684 0
0.2666666804 0.00666666684 0
0.25333333 0.00666666684 0
0.2399999948 0.00666666684 0
0.226666674 0.00666666684 0
0.2133333384 0.00666666684 0
0.2000000028 0.00666666684 0
0.1866666676 0.00666666684 0
0.173333332 0.00666666684 0
0.1599999964 0.00666666684 0
0.1466666608 0.00666666684 0
0.1333333404 0.00666666684 0
0.1199999972 0.00666666684 0
0.1066666692 0.00666666684 0
0.0933333336 0.00666666684 0
0.0799999984 0.00666666684 0
0.06666667 0.00666666684 0
0.0533333348 0.00666666684 0
0.03999999912 0.00666666684 0
0.02666666732 0.00666666684 0
0.01333333364 0.00666666684 0
0.0 0.00666666684 0
0.400000004 -0.00666666684 0
0.3866666556 -0.00666666684 0
0.3733333348 -0.00666666684 0
0.3600000144 -0.00666666684 0
0.346666664 -0.00666666684 0
0.3333333432 -0.00666666684 0
0.3199999928 -0.00666666684 0
0.3066666724 -0.00666666684 0
0.293333322 -0.00666666684 0
0.2800000012 -0.00666666684 0
0.2666666804 -0.00666666684 0
0.25333333 -0.00666666684 0
0.2399999948 -0.00666666684 0
0.226666674 -0.00666666684 0
0.2133333384 -0.00666666684 0
0.2000000028 -0.00666666684 0
0.1866666676 -0.00666666684 0
0.173333332 -0.00666666684 0
0.1599999964 -0.00666666684 0
0.1466666608 -0.00666666684 0
0.1333333404 -0.00666666684 0
0.1199999972 -0.00666666684 0
0.1066666692 -0.00666666684 0
0.0933333336 -0.00666666684 0
0.0799999984 -0.00666666684 0
0.06666667 -0.00666666684 0
0.0533333348 -0.00666666684 0
0.03999999912 -0.00666666684 0
0.02666666732 -0.00666666684 0
0.01333333364 -0.00666666684 0
0.0 -0.00666666684 0
0.400000004 -0.01999999956 0
0.3866666556 -0.01999999956 0
0.3733333348 -0.01999999956 0
0.3600000144 -0.01999999956 0
0.346666664 -0.01999999956 0
0.3333333432 -0.01999999956 0
0.3199999928 -0.01999999956 0
0.3066666724 -0.01999999956 0
0.293333322 -0.01999999956 0
0.2800000012 -0.01999999956 0
0.2666666804 -0.01999999956 0
0.25333333 -0.01999999956 0
0.2399999948 -0.01999999956 0
0.226666674 -0.01999999956 0
0.2133333384 -0.01999999956 0
0.2000000028 -0.01999999956 0
0.1866666676 -0.01999999956 0
0.173333332 -0.01999999956 0
0.1599999964 -0.01999999956 0
0.1466666608 -0.01999999956 0
0.1333333404 -0.01999999956 0
0.1199999972 -0.01999999956 0
0.1066666692 -0.01999999956 0
0.0933333336 -0.01999999956 0
0.0799999984 -0.01999999956 0
0.06666667 -0.01999999956 0
0.0533333348 -0.01999999956 0
0.03999999912 -0.01999999956 0
0.02666666732 -0.01999999956 0
0.01333333364 -0.01999999956 0
0.0 -0.01999999956 0
0.400000004 -0.03333333508 0
0.3866666556 -0.03333333508 0
0.3733333348 -0.03333333508 0
0.3600000144 -0.03333333508 0
0.346666664 -0.03333333508 0
0.3333333432 -0.03333333508 0
0.3199999928 -0.03333333508 0
0.3066666724 -0.03333333508 0
0.293333322 -0.03333333508 0
0.2800000012 -0.03333333508 0
0.2666666804 -0.03333333508 0
0.25333333 -0.03333333508 0
0.2399999948 -0.03333333508 0
0.226666674 -0.03333333508 0
0.2133333384 -0.03333333508 0
0.2000000028 -0.03333333508 0
0.1866666676 -0.03333333508 0
0.173333332 -0.03333333508 0
0.1599999964 -0.03333333508 0
0.1466666608 -0.03333333508 0
0.1333333404 -0.03333333508 0
0.1199999972 -0.03333333508 0
0.1066666692 -0.03333333508 0
0.0933333336 -0.03333333508 0
0.0799999984 -0.03333333508 0
0.06666667 -0.03333333508 0
0.0533333348 -0.03333333508 0
0.03999999912 -0.03333333508 0
0.02666666732 -0.03333333508 0
0.01333333364 -0.03333333508 0
0.0 -0.03333333508 0
0.400000004 -0.0466666668 0
0.3866666556 -0.0466666668 0
0.3733333348 -0.0466666668 0
0.3600000144 -0.0466666668 0
0.346666664 -0.0466666668 0
0.3333333432 -0.0466666668 0
0.3199999928 -0.0466666668 0
0.3066666724 -0.0466666668 0
0.293333322 -0.0466666668 0
0.2800000012 -0.0466666668 0
0.2666666804 -0.0466666668 0
0.25333333 -0.0466666668 0
0.2399999948 -0.0466666668 0
0.226666674 -0.0466666668 0
0.2133333384 -0.0466666668 0
0.2000000028 -0.0466666668 0
0.1866666676 -0.0466666668 0
0.173333332 -0.0466666668 0
0.1599999964 -0.0466666668 0
0.1466666608 -0.0466666668 0
0.1333333404 -0.0466666668 0
0.1199999972 -0.0466666668 0
0.1066666692 -0.0466666668 0
0.0933333336 -0.0466666668 0
0.0799999984 -0.0466666668 0
0.06666667 -0.0466666668 0
0.0533333348 -0.0466666668 0
0.03999999912 -0.0466666668 0
0.02666666732 -0.0466666668 0
0.01333333364 -0.0466666668 0
0.0 -0.0466666668 0
0.400000004 -0.0599999988 0
0.3866666556 -0.0599999988 0
0.3733333348 -0.0599999988 0
0.3600000144 -0.0599999988 0
0.346666664 -0.0599999988 0
0.3333333432 -0.0599999988 0
0.3199999928 -0.0599999988 0
0.3066666724 -0.0599999988 0
0.293333322 -0.0599999988 0
0.2800000012 -0.0599999988 0
0.2666666804 -0.0599999988 0
0.25333333 -0.0599999988 0
0.2399999948 -0.0599999988 0
0.226666674 -0.0599999988 0
0.2133333384 -0.0599999988 0
0.2000000028 -0.0599999988 0
0.1866666676 -0.0599999988 0
0.173333332 -0.0599999988 0
0.1599999964 -0.0599999988 0
0.1466666608 -0.0599999988 0
0.1333333404 -0.0599999988 0
0.1199999972 -0.0599999988 0
0.1066666692 -0.0599999988 0
0.0933333336 -0.0599999988 0
0.0799999984 -0.0599999988 0
0.06666667 -0.0599999988 0
0.0533333348 -0.0599999988 0
0.03999999912 -0.0599999988 0
0.02666666732 -0.0599999988 0
0.01333333364 -0.0599999988 0
0.0 -0.0599999988 0
0.400000004 -0.0733333304 0
0.3866666556 -0.0733333304 0
0.3733333348 -0.0733333304 0
0.3600000144 -0.0733333304 0
0.346666664 -0.0733333304 0
0.3333333432 -0.0733333304 0
0.3199999928 -0.0733333304 0
0.3066666724 -0.0733333304 0
0.293333322 -0.0733333304 0
0.2800000012 -0.0733333304 0
0.2666666804 -0.0733333304 0
0.25333333 -0.0733333304 0
0.2399999948 -0.0733333304 0
0.226666674 -0.0733333304 0
0.2133333384 -0.0733333304 0
0.2000000028 -0.0733333304 0
0.1866666676 -0.0733333304 0
0.173333332 -0.0733333304 0
0.1599999964 -0.0733333304 0
0.1466666608 -0.0733333304 0
0.1333333404 -0.0733333304 0
0.1199999972 -0.0733333304 0
0.1066666692 -0.0733333304 0
0.0933333336 -0.0733333304 0
0.0799999984 -0.0733333304 0
0.06666667 -0.0733333304 0
0.0533333348 -0.0733333304 0
0.03999999912 -0.0733333304 0
0.02666666732 -0.0733333304 0
0.01333333364 -0.0733333304 0
0.0 -0.0733333304 0
0.400000004 -0.086666666 0
0.3866666556 -0.086666666 0
0.3733333348 -0.086666666 0
0.3600000144 -0.086666666 0
0.346666664 -0.086666666 0
0.3333333432 -0.086666666 0
0.3199999928 -0.086666666 0
0.3066666724 -0.086666666 0
0.293333322 -0.086666666 0
0.2800000012 -0.086666666 0
0.2666666804 -0.086666666 0
0.25333333 -0.086666666 0
0.2399999948 -0.086666666 0
0.226666674 -0.086666666 0
0.2133333384 -0.086666666 0
0.2000000028 -0.086666666 0
0.1866666676 -0.086666666 0
0.173333332 -0.086666666 0
0.1599999964 -0.086666666 0
0.1466666608 -0.086666666 0
0.1333333404 -0.086666666 0
0.1199999972 -0.086666666 0
0.1066666692 -0.086666666 0
0.0933333336 -0.086666666 0
0.0799999984 -0.086666666 0
0.06666667 -0.086666666 0
0.0533333348 -0.086666666 0
0.03999999912 -0.086666666 0
0.02666666732 -0.086666666 0
0.01333333364 -0.086666666 0
0.0 -0.086666666 0
0.400000004 -0.1000000016 0
0.3866666556 -0.1000000016 0
0.3733333348 -0.1000000016 0
0.3600000144 -0.1000000016 0
0.346666664 -0.1000000016 0
0.3333333432 -0.1000000016 0
0.3199999928 -0.1000000016 0
0.3066666724 -0.1000000016 0
0.293333322 -0.1000000016 0
0.2800000012 -0.1000000016 0
0.2666666804 -0.1000000016 0
0.25333333 -0.1000000016 0
0.2399999948 -0.1000000016 0
0.226666674 -0.1000000016 0
0.2133333384 -0.1000000016 0
0.2000000028 -0.1000000016 0
0.1866666676 -0.1000000016 0
0.173333332 -0.1000000016 0
0.1599999964 -0.1000000016 0
0.1466666608 -0.1000000016 0
0.1333333404 -0.1000000016 0
0.1199999972 -0.1000000016 0
0.1066666692 -0.1000000016 0
0.0933333336 -0.1000000016 0
0.0799999984 -0.1000000016 0
0.06666667 -0.1000000016 0
0.0533333348 -0.1000000016 0
0.03999999912 -0.1000000016 0
0.02666666732 -0.1000000016 0
0.01333333364 -0.1000000016 0
0.0 -0.1000000016 0
0.400000004 -0.1133333372 0
0.3866666556 -0.1133333372 0
0.3733333348 -0.1133333372 0
0.3600000144 -0.1133333372 0
0.346666664 -0.1133333372 0
0.3333333432 -0.1133333372 0
0.3199999928 -0.1133333372 0
0.3066666724 -0.1133333372 0
0.293333322 -0.1133333372 0
0.2800000012 -0.1133333372 0
0.2666666804 -0.1133333372 0
0.25333333 -0.1133333372 0
0.2399999948 -0.1133333372 0
0.226666674 -0.1133333372 0
0.2133333384 -0.1133333372 0
0.2000000028 -0.1133333372 0
0.1866666676 -0.1133333372 0
0.173333332 -0.1133333372 0
0.1599999964 -0.1133333372 0
0.1466666608 -0.1133333372 0
0.1333333404 -0.1133333372 0
0.1199999972 -0.1133333372 0
0.1066666692 -0.1133333372 0
0.0933333336 -0.1133333372 0
0.0799999984 -0.1133333372 0
0.06666667 -0.1133333372 0
0.0533333348 -0.1133333372 0
0.03999999912 -0.1133333372 0
0.02666666732 -0.1133333372 0
0.01333333364 -0.1133333372 0
0.0 -0.1133333372 0
0.400000004 -0.1266666652 0
0.3866666556 -0.1266666652 0
0.3733333348 -0.1266666652 0
[...]
POINT_DATA 961
SCALARS Temp float 1
LOOKUP_TABLE default
0.7252994831007882
0.7542681747904354
0.775057162608364
0.7901728222992803
0.8012482204740361
0.8094031871763916
0.8154349713657496
0.8199174019544111
0.8232681345493673
0.825793189985041
0.8277194560528537
0.8292172242921723
0.8304166329103229
0.8314204637340723
0.8323136905205636
0.8331710534762891
0.834063995383088
0.8350670376966748
0.8362644789936646
0.8377580581230033
0.8396762867886425
0.8421867363545592
0.8455116998501503
0.8499504450082223
0.8559090894062015
0.8639429986077269
0.8748171911144599
0.8895947095437181
0.9097712275897002
0.9375174011577134
0.9762764378346127
0.7655398276676326
0.7939456744607644
0.8145113738994152
0.8295442936011768
0.8405816612904613
0.8487210168587355
0.8547480987201476
0.8592312575061442
0.8625852862122732
0.865114716154802
0.8670456703549816
0.8685480805704994
0.8697519576892729
0.870760080767432
0.871657490011043
0.8725190328197799
0.8734162740279319
0.874423856498774
0.8756261812531696
0.8771250437281293
0.8790489237494625
0.8815651907889784
0.8848956426688341
0.8893385101338936
0.8952979029520948
0.9033253618388649
0.9141785557374015
0.9289053352320511
0.948969743702656
0.9764330290723334
1.0142807453247096
2.6495552281823898
2.6537753713154095
2.6655370294273046
2.676384833143623
2.685355115159876
2.692492153544338
2.6980802869299225
2.7024264708550634
2.70580297707612
2.708435781447495
2.7105077072424235
2.7121657488324473
2.7135290089419084
2.714696122287397
2.7157518622032057
2.71677304795737
2.717834038717502
2.7190121216732455
2.7203930854530642
2.722077325179776
2.7241868200645563
2.7268732145749497
2.7303271425659217
2.73478842789985
2.7405555688826695
2.7479896436877755
2.757498653865879
2.7694606560640382
2.7839338954754336
2.7996226634865247
2.805255097907729
4.510090931237201
4.512393935970538
4.518046397326784
4.525109362474221
4.531806127170771
4.537612081081895
4.542441977728561
4.546377071082487
4.549551745801739
4.552107630362798
4.554176102253528
4.55587306051224
4.557299147479025
4.558542315190502
4.5596813028519
4.560789450322328
4.561938646500951
4.563203354487744
4.564664745838811
4.566414954910328
4.568561362678927
4.571230611588409
4.574571472324484
4.578754772952581
4.583966124019747
4.590382239234579
4.59810956290022
4.607032599924816
4.616448988170225
4.623987089151209
4.627058351370327
6.365131490284748
6.366357119896085
6.369669488664344
6.374154345818527
6.378930380046213
6.383418003417308
6.387378660756629
6.390756019798946
6.3935825386305805
6.395928838589861
6.397878166237412
6.3995142453862695
6.400916317383171
6.402158000244191
6.4033081236435
6.404432599326422
6.4055968254270805
6.406868315124562
6.408319349633994
6.4100294213192734
6.412087087747788
6.414590563231811
6.417645709870531
6.421359089727858
6.425821470719138
6.431073440364521
6.437037716325011
6.443394112785263
6.44936780353758
6.453781629273239
6.455415121044026
8.21685614824617
8.217602640765225
8.219668173091595
8.222625455530391
8.225979953161794
8.229337169618368
8.232456204844325
8.235228356496703
8.237628496765971
8.239678374993163
8.24142337180116
8.242918992841261
8.24422370077134
8.245395652895425
8.24649173851262
8.247567954510178
8.248680515097256
8.249887259432725
8.251249021424067
8.252830587898327
8.254700726374802
8.256930493161894
8.259588478596445
8.262730965843238
8.26638366157014
8.270510413675662
8.274964132782024
8.279421707032784
8.283355466697724
8.286104601907233
8.287098402764267
10.066348498163181
10.06682392492728
10.068164272364509
10.070145670463786
10.072488265856968
10.074936451929817
10.07730485239575
10.07948480314411
10.081429370948692
10.083133193716797
10.084616096887762
10.085911748338301
10.087060616131108
10.08810604982751
10.089092424388507
10.09006458643894
10.0910680499077
10.092149493073812
10.093357183296838
10.094740920718584
10.096350978900713
10.09823533260078
10.100434118021
10.102970019874533
10.105832933608365
10.108957893342136
10.11219809147492
10.11530472584437
10.117935654833666
10.119716681428239
10.120348627480514
11.914086199033264
11.91439241056467
11.915265253919666
11.916582548927396
11.918182917019653
11.919906882276878
11.921625775567247
11.923253015922654
11.92474172811569
11.926075903941491
11.927260732157844
11.928314644592596
11.929263698273706
11.930138034206454
11.930969879271991
11.931792600445101
11.932640391867235
11.933548215769205
11.934551662948714
11.935686370977301
11.936986566807473
11.938482204258932
11.94019401627283
11.942125863628046
11.944253973618036
11.94651388070045
11.948788572904974
11.950905192015385
11.952650081442181
11.953807293672025
11.954213436905336
13.760306473045695
13.760495455844312
13.761038092239408
13.761868344856525
13.762895978718074
13.76402721339813
13.765181253425249
13.766298965221312
13.767344257057307
13.768300825173828
13.769167231569789
13.76995213802416
13.770670550732227
13.77134122413571
13.771985035152317
13.772624068311552
13.773281145992813
13.773979536523258
13.774742594734118
13.775593071072912
13.776551789705316
13.777635365603608
13.778852599299434
13.780199368680305
13.781652172667128
13.783161459386392
13.784647245353959
13.786000874757725
13.78709659095777
13.787813550213484
13.788063377902501
15.605124893271622
15.605223710685172
15.605509028088944
15.605950274792956
15.606504771705389
15.607126731589071
15.607775002133119
15.608417758718904
15.609033995655968
15.609612660116682
15.610150658982768
15.61065064076561
15.611119086137926
15.611564888615073
15.611998392439876
15.612430786854965
15.612873731718645
15.613339074102917
15.613838524247397
15.614383149609642
15.614982533617624
15.615643446165652
15.616367882602793
15.617150472238816
15.617975471395715
15.618814050550618
15.619623120857813
15.620347280179256
15.620925071909161
15.621299292910727
15.621429001912762
17.44859683898565
17.44861772342144
17.44867910005161
17.448777373383223
17.44890725679777
17.44906260388931
17.449237229412347
17.44942554494579
17.44962294713423
17.449825959594154
17.450032203804042
17.450240261483508
17.45044949247543
17.45065984910379
17.450871700304234
17.451085671313876
17.45130249784302
17.451522882807172
17.45174734613517
17.45197605679791
17.452208638269017
17.452443946471
17.45267982345124
17.452912861193322
17.453138218792375
17.453349579647078
17.453539344433274
17.453699143177577
17.453820686332005
17.453896856464567
17.453922818428165
17.551451342583235
17.55146859507725
17.551519487077755
17.55160155890622
17.551711128246666
17.551843798355662
17.55199498799173
17.55216037573226
17.552336211157357
17.55251947223447
17.552707903125278
17.552899960389208
17.553094708066688
17.553291692361228
17.55349080824361
17.553692166807544
17.55389596723596
17.554102367366298
17.554311349239672
17.554522574995772
17.55473523076796
17.55494786347523
17.55515821797237
17.555363106073592
17.55555833781839
17.555738770338497
17.55589852252553
17.556031386180592
17.55613142211315
17.556193664567207
17.556214800386527
17.654199141069608
17.65421367717815
17.654256680208626
17.654326417302794
17.654420256225666
17.65453498537141
17.654667162044635
17.65481342195598
17.654970717466124
17.6551364600232
17.6553085822106
17.655485528629228
17.65566620001079
17.655849871885263
17.656036096890077
17.656224599627826
17.656415170179198
17.656607553977025
17.6568013383447
17.656995835163855
17.6571899610821
17.65738212252886
17.657570113204734
17.65775104971964
17.65792136394813
17.658076885976385
17.65821303954707
17.65832515738287
17.658408897686957
17.65846070706837
17.65847824875945
17.75684538242896
17.75685783731518
17.75689476657981
17.75695491619785
17.75703635812088
17.75713669707221
17.757253303553682
17.757383530094582
17.757524889832666
17.75767517496753
17.757832522342984
17.757995425931366
17.758162710554227
17.7583334811048
17.758507053008216
17.75868287165549
17.7588604275239
17.759039166735043
17.759218399616955
17.759397209077576
17.759574362005324
17.75974823130763
17.75991673479194
17.760077310696
17.760226939688152
17.760362233694504
17.760479599756525
17.76057547687647
17.760646628300453
17.760690451327793
17.760705254623492
17.85939392819235
17.85940475571285
17.85943691678488
17.859489480681184
17.85956100159347
17.85964965534795
17.85975339796449
17.85987011770247
17.859997767741653
17.86013446060322
17.86027852830617
17.860428543680257
17.86058331119995
17.86074183678526
17.860903279605978
17.86106689213708
17.86123195491191
17.861397706648543
17.861563273367953
17.86172759939079
17.861889383991805
17.862047030668318
17.862198613369017
17.862341874645796
17.862474259735087
17.862592998834785
17.86269523903814
17.8627782207403
17.862839484346573
17.86287708127109
17.862889757849832
17.961847695306208
17.961857228707643
17.96188558550039
17.961932057843732
17.96199553624238
17.962074601775026
17.962167635747956
17.962272927450176
17.962388772551183
17.962513546700674
17.96264575722351
17.962784066637
17.96292729294039
17.963074393003367
17.96322443016213
17.963376530881874
17.963529836280244
17.96368344943553
17.963836382367397
17.963987505851605
17.96413550571772
17.96427885155653
17.96441578049262
17.964544307329675
17.964662261485834
17.964767358295866
17.964857303081953
17.964929922347228
17.96498331136959
17.965015980317776
17.965026978860166
18.060925021806252
18.060933508032708
18.060958777904407
18.061000280201057
18.061057144023692
18.061128242141244
18.061212267990324
18.061307812711973
18.06141343830555
18.061527734353376
18.061649360994284
18.061777071495747
18.061909717477935
18.06204624115894
18.062185654453955
18.062327008637183
18.062469359594992
18.06261172948157
18.062753068484632
18.062892219685814
18.06302789020497
18.063158633481777
18.063282844008146
18.06339877318239
18.06350456462797
18.063598313895483
18.06367814976424
18.06374233206222
18.06378935816011
18.063818065758863
18.063827718964777
18.153320461972122
18.153328086733147
18.153350811105703
18.153388195890255
18.153439542236853
18.153503935865423
18.153580301931076
18.153667460610627
18.153764181786904
18.15386922857757
18.15398139248444
18.15409951374347
18.154222488902217
18.15434926878455
18.154478845880227
18.154610233970974
18.154742444276813
18.15487445866262
18.155005203212905
18.155133524769756
18.15525817305401
18.155377792254992
18.155490922417528
18.155596017433457
18.15569147687257
18.155775695087534
18.155847124534432
18.155904349088114
18.155946161727012
18.155971637922672
18.15598019615333
18.239001733706612
18.23900864224518
18.23902924609387
18.239063187386613
18.239109893073444
18.239168606261785
18.23923842588244
18.23931834720147
18.239407303031886
18.23950419716502
18.239607932965107
18.239717431180217
18.239831638454618
18.23994952895774
18.24007009770113
18.240192347675745
18.24031527443164
18.240437848324646
18.240558997265026
18.240677592107176
18.24079243673971
18.240902265951195
18.2410057507152
18.2411015163919
18.241188170560136
18.241264343094876
18.241328735565972
18.241380176590702
18.241417679162506
18.24144049381358
18.241448151867655
18.317938930752504
18.317945239123205
18.317964063118104
18.31799510473096
18.318037884073874
18.318091761922062
18.318155968824186
18.318229634955546
18.318311821509557
18.318401546506447
18.318497808105995
18.31859960001319
18.31870592018193
18.318815774770503
18.31892817566676
18.319042133209816
18.319156647169283
18.319270695908564
18.319383226102623
18.319493144706094
18.319599314736244
18.319700557295796
18.31979565902286
18.319883389540543
18.319962525439728
18.320031882958155
18.32009035672266
18.32013696192583
18.320170877157395
18.320191483475252
18.320198395819027
18.390104468190145
18.390110271083852
18.390127593989867
18.39015618349673
18.390195629507698
18.39024538170466
18.390304771255995
18.390373033092693
18.390449330138406
18.390532773413884
18.39062244119478
18.39071739232507
18.390816674750244
18.390919330930807
18.39102439833379
18.3911309062559
18.391237871576568
18.39134429311404
18.39144914653754
18.391551381140903
18.391649919630225
18.391743662842174
18.3918314982907
18.39191231645188
18.391985031328893
18.392048607207677
18.39210208929639
18.392144636218767
18.392175552444925
18.392194317435848
18.392200608826034
18.455473053560432
18.45547842982664
18.45549448437288
18.455520997363465
18.45555761151275
18.455603844303873
18.455659104463145
18.45572270882449
18.45579390133236
18.45587186890282
18.45595575736318
18.45604468303059
18.456137740921157
18.456234011058893
18.456332561041524
18.45643244584088
18.456532707063367
18.456632371140344
18.456730448047345
18.456825931532478
18.456917801676532
18.457005031312203
18.4570865950243
18.457161484159492
18.457228724490623
18.45728739830043
18.457336668884004
18.45737580590968
18.45740421033875
18.457421436511165
18.45742720953913
18.514022065092004
18.514027081698128
18.51404206599452
18.51406682364119
18.514101037638895
18.514144277560398
18.514196012300854
18.51425562306347
18.51432241854404
18.51439564764902
18.514474512969777
18.514558180963956
18.51464578979795
18.51473645618789
18.514829279401614
18.514923343196077
18.515017717617642
18.515111459980645
18.51520361633423
18.51529322413522
18.51537931669497
18.51546093063144
18.515537114950085
18.51560694482583
18.515669536874952
18.51572406759198
18.51576979321678
18.515806069830642
18.51583237282299
18.515848313917765
18.51585365445726
18.565730814135904
18.565735529059175
18.565749614960637
18.56577289697066
18.56580508898327
18.56584580077421
18.565894548088995
18.565950762843002
18.56601380551636
18.56608297555372
18.56615752296527
18.56623665740585
18.566319555663092
18.56640536879794
18.566493227129254
18.566582243686526
18.56667151782346
18.566760138194713
18.56684718617489
18.56693174023405
18.567012881643144
18.567089702518484
18.56716131478079
18.567226862832474
18.567285536896446
18.56733658863014
18.567379347500765
18.56741323699201
18.56743779009695
18.567452662698273
18.567457643913524
18.61058151643087
18.61058598079947
18.610599320116574
18.610621374403912
18.610651881271657
18.610690481537237
18.61073672740726
18.610790090677135
18.61084997309204
18.610915715044833
18.610986605765664
18.611061891545376
18.611140782907512
18.61122246190226
18.6113060877533
18.611390801371115
18.611475730242102
18.611559992815483
18.61164270328817
18.611722977145373
18.61179993768653
18.61187272437944
18.611940501601012
18.61200247036465
18.612057880123476
18.61210604221847
18.61214634363471
18.61217826033829
18.61220136987089
18.612215362095444
18.612220047432317
18.64855837256195
18.648562632280015
18.648575361505774
18.64859641159571
18.648625538271062
18.648662406174957
18.648706595693127
18.6487576097231
18.648814882559982
18.648877787355573
18.648945645255502
18.649017732969313
18.6490932896748
18.64917152437667
18.64925162199173
18.649332748593157
18.649414057181758
18.64949469305207
18.649573799515785
18.649650524224803
18.64972402621706
18.649793484406192
18.649858106073854
18.64991713780964
18.649969876116646
18.6500156792174
18.65005397886138
18.650084291556496
18.650106229057258
18.650119507210963
18.65012395268192
18.67964830522129
18.67965240222264
18.679664646189277
18.67968489697799
18.679712923930047
18.6797484096837
18.67979095603265
18.679840089683864
18.679895270087673
18.679955896007506
18.68002131388618
18.680090824927927
18.680163691786348
18.680239145937314
18.680316394047868
18.680394623714193
18.680473009830656
18.680550720621493
18.680626923995938
18.68070079438431
18.680771520102326
18.680838311876595
18.68090041109904
18.680957100138162
18.681007712033278
18.681051641078742
18.68108835320417
18.681117395681742
18.681138406101404
18.681151119861667
18.681155375820204
18.70384058051434
18.70384455376009
18.70385642855658
18.703876070932196
18.703903260139487
18.703937691957712
18.703978983888124
18.704026680214913
18.70408025910009
18.704139138533236
18.70420268415055
18.704270215965206
18.704341014889465
18.704414330097617
18.70448938557227
18.704565386166305
18.70464152436454
18.70471698675441
18.704790960793147
18.7048626419698
18.70493124135663
18.704995994120647
18.705056167575474
18.7051110710152
18.705160064741843
18.70520256977077
18.705238077197684
18.705266156833577
18.705286465122416
18.7052987516894
18.705302864247955
18.721126714667946
18.72113060096412
18.721142216333728
18.721161430993913
18.721188030935892
18.72122172089738
18.72126212912605
18.72130881198758
18.72136126057798
18.72141890626675
18.72148112815146
18.721547259551354
18.721616594412833
18.72168839465471
18.721761896819793
18.721836318337697
18.721910864530514
18.72198473535699
18.722057132434077
18.722127266394757
18.722194364542986
18.72225767933499
18.722316496278204
18.722370143431192
18.72241799997674
18.722459505336275
18.722494167861807
18.722521572761774
18.72254138932251
18.72255337683865
18.72255738903387
18.731500807268716
18.73150464195909
18.731516103335622
18.731535064045296
18.73156131399289
18.731594563128137
18.731634445966144
18.73168052594027
18.73173230174156
18.731789212631355
18.731850645687675
18.731915942162324
18.73198440381697
18.73205530025408
18.732127875623384
18.73220135499364
18.732274951490517
18.732347873189582
18.732419330275125
18.73248854250147
18.73255474689844
18.732617206226944
18.73267521678346
18.732728117702415
18.73277529926529
18.73281621167451
18.73285037335928
18.73287737849741
18.732896903841578
18.732908714299867
18.73291266708177
18.73495922586413
18.734963043445198
18.73497445376394
18.734993330263798
18.735019464133092
18.735052567032536
18.735092275537102
18.73513815540669
18.73518970783709
18.7352463746981
18.73530754571214
18.735372564766628
18.735440736227293
18.735511332263535
18.735583599571957
18.735656765782487
18.735730046638054
18.73580265293477
18.735873797723883
18.7359427038054
18.73600861144851
18.736070786837395
18.736128529843814
18.7361811832641
18.736228141041636
18.736268856929712
18.73630285267155
18.736329725391002
18.736349154290735
18.736360906119426
18.736364839229026
