# vtk DataFile Version 2.0
Unstructured Grid Example
ASCII
DATASET UNSTRUCTURED_GRID

POINTS 961 float
0.400000004 0.01999999956 0
0.3866666556 0.01999999956 0
0.3733333348 0.01999999956 0
0.3600000144 0.01999999956 0
0.346666664 0.01999999956 0
0.3333333432 0.01999999956 0
0.3199999928 0.01999999956 0
0.3066666724 0.01999999956 0
0.293333322 0.01999999956 0
0.2800000012 0.01999999956 0
0.2666666804 0.01999999956 0
0.25333333 0.01999999956 0
0.2399999948 0.01999999956 0
0.226666674 0.01999999956 0
0.2133333384 0.01999999956 0
0.2000000028 0.01999999956 0
0.1866666676 0.01999999956 0
0.173333332 0.01999999956 0
0.1599999964 0.01999999956 0
0.1466666608 0.01999999956 0
0.1333333404 0.01999999956 0
0.1199999972 0.01999999956 0
0.1066666692 0.01999999956 0
0.0933333336 0.01999999956 0
0.0799999984 0.01999999956 0
0.06666667 0.01999999956 0
0.0533333348 0.01999999956 0
0.03999999912 0.01999999956 0
0.02666666732 0.01999999956 0
0.01333333364 0.01999999956 0
0.0 0.01999999956 0
0.400000004 0.00666666684 0
0.3866666556 0.00666666684 0
0.3733333348 0.00666666684 0
0.3600000144 0.00666666684 0
0.346666664 0.00666666684 0
0.3333333432 0.00666666684 0
0.3199999928 0.00666666684 0
0.3066666724 0.00666666684 0
0.293333322 0.00666666684 0
0.2800000012 0.00666666684 0
0.2666666804 0.00666666684 0
0.25333333 0.00666666684 0
0.2399999948 0.00666666684 0
0.226666674 0.00666666684 0
0.2133333384 0.00666666684 0
0.2000000028 0.00666666684 0
0.1866666676 0.00666666684 0
0.173333332 0.00666666684 0
0.1599999964 0.00666666684 0
0.1466666608 0.00666666684 0
0.1333333404 0.00666666684 0
0.1199999972 0.00666666684 0
0.1066666692 0.00666666684 0
0.0933333336 0.00666666684 0
0.0799999984 0.00666666684 0
0.06666667 0.00666666684 0
0.0533333348 0.00666666684 0
0.03999999912 0.00666666684 0
0.02666666732 0.00666666684 0
0.01333333364 0.00666666684 0
0.0 0.00666666684 0
0.400000004 -0.00666666684 0
0.3866666556 -0.00666666684 0
0.3733333348 -0.00666666684 0
0.3600000144 -0.00666666684 0
0.346666664 -0.00666666684 0
0.3333333432 -0.00666666684 0
0.3199999928 -0.00666666684 0
0.3066666724 -0.00666666684 0
0.293333322 -0.00666666684 0
0.2800000012 -0.00666666684 0
0.2666666804 -0.00666666684 0
0.25333333 -0.00666666684 0
0.2399999948 -0.00666666684 0
0.226666674 -0.00666666684 0
0.2133333384 -0.00666666684 0
0.2000000028 -0.00666666684 0
0.1866666676 -0.00666666684 0
0.173333332 -0.00666666684 0
0.1599999964 -0.00666666684 0
0.1466666608 -0.00666666684 0
0.1333333404 -0.00666666684 0
0.1199999972 -0.00666666684 0
0.1066666692 -0.00666666684 0
0.0933333336 -0.00666666684 0
0.0799999984 -0.00666666684 0
0.06666667 -0.00666666684 0
0.0533333348 -0.00666666684 0
0.03999999912 -0.00666666684 0
0.02666666732 -0.00666666684 0
0.01333333364 -0.00666666684 0
0.0 -0.00666666684 0
0.400000004 -0.01999999956 0
0.3866666556 -0.01999999956 0
0.3733333348 -0.01999999956 0
0.3600000144 -0.01999999956 0
0.346666664 -0.01999999956 0
0.3333333432 -0.01999999956 0
0.3199999928 -0.01999999956 0
0.3066666724 -0.01999999956 0
0.293333322 -0.01999999956 0
0.2800000012 -0.01999999956 0
0.2666666804 -0.01999999956 0
0.25333333 -0.01999999956 0
0.2399999948 -0.01999999956 0
0.226666674 -0.01999999956 0
0.2133333384 -0.01999999956 0
0.2000000028 -0.01999999956 0
0.1866666676 -0.01999999956 0
0.173333332 -0.01999999956 0
0.1599999964 -0.01999999956 0
0.1466666608 -0.01999999956 0
0.1333333404 -0.01999999956 0
0.1199999972 -0.01999999956 0
0.1066666692 -0.01999999956 0
0.0933333336 -0.01999999956 0
0.0799999984 -0.01999999956 0
0.06666667 -0.01999999956 0
0.0533333348 -0.01999999956 0
0.03999999912 -0.01999999956 0
0.02666666732 -0.01999999956 0
0.01333333364 -0.01999999956 0
0.0 -0.01999999956 0
0.400000004 -0.03333333508 0
0.3866666556 -0.03333333508 0
0.3733333348 -0.03333333508 0
0.3600000144 -0.03333333508 0
0.346666664 -0.03333333508 0
0.3333333432 -0.03333333508 0
0.3199999928 -0.03333333508 0
0.3066666724 -0.03333333508 0
0.293333322 -0.03333333508 0
0.2800000012 -0.03333333508 0
0.2666666804 -0.03333333508 0
0.25333333 -0.03333333508 0
0.2399999948 -0.03333333508 0
0.226666674 -0.03333333508 0
0.2133333384 -0.03333333508 0
0.2000000028 -0.03333333508 0
0.1866666676 -0.03333333508 0
0.173333332 -0.03333333508 0
0.1599999964 -0.03333333508 0
0.1466666608 -0.03333333508 0
0.1333333404 -0.03333333508 0
0.1199999972 -0.03333333508 0
0.1066666692 -0.03333333508 0
0.0933333336 -0.03333333508 0
0.0799999984 -0.03333333508 0
0.06666667 -0.03333333508 0
0.0533333348 -0.03333333508 0
0.03999999912 -0.03333333508 0
0.02666666732 -0.03333333508 0
0.01333333364 -0.03333333508 0
0.0 -0.03333333508 0
0.400000004 -0.0466666668 0
0.3866666556 -0.0466666668 0
0.3733333348 -0.0466666668 0
0.3600000144 -0.0466666668 0
0.346666664 -0.0466666668 0
0.3333333432 -0.0466666668 0
0.3199999928 -0.0466666668 0
0.3066666724 -0.0466666668 0
0.293333322 -0.0466666668 0
0.2800000012 -0.0466666668 0
0.2666666804 -0.0466666668 0
0.25333333 -0.0466666668 0
0.2399999948 -0.0466666668 0
0.226666674 -0.0466666668 0
0.2133333384 -0.0466666668 0
0.2000000028 -0.0466666668 0
0.1866666676 -0.0466666668 0
0.173333332 -0.0466666668 0
0.1599999964 -0.0466666668 0
0.1466666608 -0.0466666668 0
0.1333333404 -0.0466666668 0
0.1199999972 -0.0466666668 0
0.1066666692 -0.0466666668 0
0.0933333336 -0.0466666668 0
0.0799999984 -0.0466666668 0
0.06666667 -0.0466666668 0
0.0533333348 -0.0466666668 0
0.03999999912 -0.0466666668 0
0.02666666732 -0.0466666668 0
0.01333333364 -0.0466666668 0
0.0 -0.0466666668 0
0.400000004 -0.0599999988 0
0.3866666556 -0.0599999988 0
0.3733333348 -0.0599999988 0
0.3600000144 -0.0599999988 0
0.346666664 -0.0599999988 0
0.3333333432 -0.0599999988 0
0.3199999928 -0.0599999988 0
0.3066666724 -0.0599999988 0
0.293333322 -0.0599999988 0
0.2800000012 -0.0599999988 0
0.2666666804 -0.0599999988 0
0.25333333 -0.0599999988 0
0.2399999948 -0.0599999988 0
0.226666674 -0.0599999988 0
0.2133333384 -0.0599999988 0
0.2000000028 -0.0599999988 0
0.1866666676 -0.0599999988 0
0.173333332 -0.0599999988 0
0.1599999964 -0.0599999988 0
0.1466666608 -0.0599999988 0
0.1333333404 -0.0599999988 0
0.1199999972 -0.0599999988 0
0.1066666692 -0.0599999988 0
0.0933333336 -0.0599999988 0
0.0799999984 -0.0599999988 0
0.06666667 -0.0599999988 0
0.0533333348 -0.0599999988 0
0.03999999912 -0.0599999988 0
0.02666666732 -0.0599999988 0
0.01333333364 -0.0599999988 0
0.0 -0.0599999988 0
0.400000004 -0.0733333304 0
0.3866666556 -0.0733333304 0
0.3733333348 -0.0733333304 0
0.3600000144 -0.0733333304 0
0.346666664 -0.0733333304 0
0.3333333432 -0.0733333304 0
0.3199999928 -0.0733333304 0
0.3066666724 -0.0733333304 0
0.293333322 -0.0733333304 0
0.2800000012 -0.0733333304 0
0.2666666804 -0.0733333304 0
0.25333333 -0.0733333304 0
0.2399999948 -0.0733333304 0
0.226666674 -0.0733333304 0
0.2133333384 -0.0733333304 0
0.2000000028 -0.0733333304 0
0.1866666676 -0.0733333304 0
0.173333332 -0.0733333304 0
0.1599999964 -0.0733333304 0
0.1466666608 -0.0733333304 0
0.1333333404 -0.0733333304 0
0.1199999972 -0.0733333304 0
0.1066666692 -0.0733333304 0
0.0933333336 -0.0733333304 0
0.0799999984 -0.0733333304 0
0.06666667 -0.0733333304 0
0.0533333348 -0.0733333304 0
0.03999999912 -0.0733333304 0
0.02666666732 -0.0733333304 0
0.01333333364 -0.0733333304 0
0.0 -0.0733333304 0
0.400000004 -0.086666666 0
0.3866666556 -0.086666666 0
0.3733333348 -0.086666666 0
0.3600000144 -0.086666666 0
0.346666664 -0.086666666 0
0.3333333432 -0.086666666 0
0.3199999928 -0.086666666 0
0.3066666724 -0.086666666 0
0.293333322 -0.086666666 0
0.2800000012 -0.086666666 0
0.2666666804 -0.086666666 0
0.25333333 -0.086666666 0
0.2399999948 -0.086666666 0
0.226666674 -0.086666666 0
0.2133333384 -0.086666666 0
0.2000000028 -0.086666666 0
0.1866666676 -0.086666666 0
0.173333332 -0.086666666 0
0.1599999964 -0.086666666 0
0.1466666608 -0.086666666 0
0.1333333404 -0.086666666 0
0.1199999972 -0.086666666 0
0.1066666692 -0.086666666 0
0.0933333336 -0.086666666 0
0.0799999984 -0.086666666 0
0.06666667 -0.086666666 0
0.0533333348 -0.086666666 0
0.03999999912 -0.086666666 0
0.02666666732 -0.086666666 0
0.01333333364 -0.086666666 0
0.0 -0.086666666 0
0.400000004 -0.1000000016 0
0.3866666556 -0.1000000016 0
0.3733333348 -0.1000000016 0
0.3600000144 -0.1000000016 0
0.346666664 -0.1000000016 0
0.3333333432 -0.1000000016 0
0.3199999928 -0.1000000016 0
0.3066666724 -0.1000000016 0
0.293333322 -0.1000000016 0
0.2800000012 -0.1000000016 0
0.2666666804 -0.1000000016 0
0.25333333 -0.1000000016 0
0.2399999948 -0.1000000016 0
0.226666674 -0.1000000016 0
0.2133333384 -0.1000000016 0
0.2000000028 -0.1000000016 0
0.1866666676 -0.1000000016 0
0.173333332 -0.1000000016 0
0.1599999964 -0.1000000016 0
0.1466666608 -0.1000000016 0
0.1333333404 -0.1000000016 0
0.1199999972 -0.1000000016 0
0.1066666692 -0.1000000016 0
0.0933333336 -0.1000000016 0
0.0799999984 -0.1000000016 0
0.06666667 -0.1000000016 0
0.0533333348 -0.1000000016 0
0.03999999912 -0.1000000016 0
0.02666666732 -0.1000000016 0
0.01333333364 -0.1000000016 0
0.0 -0.1000000016 0
0.400000004 -0.1133333372 0
0.3866666556 -0.1133333372 0
0.3733333348 -0.1133333372 0
0.3600000144 -0.1133333372 0
0.346666664 -0.1133333372 0
0.3333333432 -0.1133333372 0
0.3199999928 -0.1133333372 0
0.3066666724 -0.1133333372 0
0.293333322 -0.1133333372 0
0.2800000012 -0.1133333372 0
0.2666666804 -0.1133333372 0
0.25333333 -0.1133333372 0
0.2399999948 -0.1133333372 0
0.226666674 -0.1133333372 0
0.2133333384 -0.1133333372 0
0.2000000028 -0.1133333372 0
0.1866666676 -0.1133333372 0
0.173333332 -0.1133333372 0
0.1599999964 -0.1133333372 0
0.1466666608 -0.1133333372 0
0.1333333404 -0.1133333372 0
0.1199999972 -0.1133333372 0
0.1066666692 -0.1133333372 0
0.0933333336 -0.1133333372 0
0.0799999984 -0.1133333372 0
0.06666667 -0.1133333372 0
0.0533333348 -0.1133333372 0
0.03999999912 -0.1133333372 0
0.02666666732 -0.1133333372 0
0.01333333364 -0.1133333372 0
0.0 -0.1133333372 0
0.400000004 -0.1266666652 0
0.3866666556 -0.1266666652 0
0.3733333348 -0.1266666652 0
[...]
POINT_DATA 961
SCALARS Temp float 1
LOOKUP_TABLE default
0.709025037888615
0.7373437135525417
0.757666204953932
0.7724426514293999
0.7832694783322159
0.7912413900892568
0.797137747953383
0.8015195061661303
0.8047949498795308
0.8072632343720436
0.8091461575201561
0.8106101909141415
0.8117825538279042
0.812763723019073
0.8136367667778491
0.8144747494685395
0.8153475119967794
0.8163279048127305
0.8174983360261481
0.8189582625756933
0.8208333133662604
0.8232873003343095
0.8265375289765975
0.8308765520069724
0.836701374081942
0.8445548985138421
0.8551849767287784
0.8696307963981678
0.8893544678233802
0.9164779367230425
0.9543671432772028
0.7483625217216205
0.7761309820371464
0.7962351942559645
0.8109307556885834
0.8217204031966301
0.8296770512373889
0.8355688088268484
0.8399512748884883
0.8432299362405706
0.8457024921165608
0.8475899928384867
0.849058558347456
0.8502352835178861
0.851220642464811
0.8520977685043483
0.8529398308582056
0.8538167898160203
0.8548016145816005
0.8559768134799486
0.8574418988365227
0.8593224684601188
0.8617821369897923
0.865037725889074
0.8693807742124942
0.8752063239181551
0.8830535393535884
0.893663087364427
0.9080593045571153
0.9276733807888324
0.954520309013088
0.991518647196566
2.5901069035766056
2.594232329177493
2.6057300023160086
2.616334278766972
2.625103116531149
2.632079802634572
2.6375422983322308
2.6417906745376047
2.645091096883817
2.6476644741738973
2.649689531159547
2.6513099678716996
2.652642218748058
2.6537827096553572
2.6548143162268607
2.6558121385784292
2.6568488719407295
2.658000073822161
2.659349612305922
2.6609956340553764
2.6630573852799757
2.6656831115118362
2.6690591724651664
2.6734200137185598
2.6790574383081855
2.6863244245283098
2.695619820846285
2.707313202751612
2.7214615113868463
2.73679811917167
2.7423041259290075
4.4088985417510855
4.4111498307347565
4.416675340298005
4.423579626111857
4.430125852789896
4.4358011848298435
4.440522292662318
4.444368611790771
4.447471516812546
4.449969464149913
4.451990889746737
4.453649098853132
4.455042482741955
4.456257027439768
4.457369713091043
4.458452241793685
4.459574897297078
4.460810479753323
4.462238347113715
4.463948573920208
4.466046138916401
4.468654849723063
4.471920145224795
4.476009026243615
4.4811029438720915
4.487374651536857
4.49492820973053
4.503650719753863
4.512855585632849
4.520224395738025
4.52322669232373
6.222318514144785
6.223516586464859
6.226754463276292
6.231138410114488
6.235806894151249
6.240193336945223
6.244064541667602
6.247365446597913
6.2501277889514135
6.252420613707058
6.254325308519238
6.255923728245265
6.257293346423213
6.258506139891999
6.259629404930916
6.260727585589194
6.261864623925807
6.263106529557436
6.264523972994813
6.266194673812774
6.268205212987505
6.270651611054326
6.273637364148449
6.277266652010552
6.2816282139635895
6.286761734289053
6.292591671774967
6.298805032007577
6.304644382095496
6.308958983943061
6.310555760393494
8.03249723059631
8.033226900339226
8.035245868225653
8.03813643474864
8.041415165655748
8.044696422074795
8.047744716417364
8.050453793838795
8.052799099967002
8.054801906859195
8.056506588605512
8.057967418017736
8.059241559321732
8.060385878846482
8.061456003824148
8.06250668940629
8.063592903330363
8.064771201801342
8.06610106839327
8.067645850563089
8.069472786652637
8.071651351807022
8.074248609798381
8.077319592545232
8.080889440680087
8.08492282320118
8.089275960274756
8.093632998558094
8.097478116069853
8.100165337048871
8.101136762028949
9.840494034925984
9.84095870403243
9.842268707704916
9.844205202235422
9.846494618692228
9.848887092725246
9.851201416234401
9.853331373677154
9.855231096793451
9.856895357093101
9.858343549713588
9.859608602742227
9.86073009282337
9.861750414208268
9.86271296411744
9.863661601244232
9.86464083679864
9.865696320201003
9.866875254082784
9.868226339056639
9.8697987379406
9.871639365558728
9.873787473154671
9.876265251013862
9.879062834754146
9.882116728458561
9.885283429637848
9.888319728530162
9.890891168843185
9.892631956364472
9.893249630181225
11.646775932194085
11.647075165075442
11.64792810116165
11.64921530538757
11.65077902616863
11.652463374133669
11.654142577585098
11.655732010630786
11.65718586405611
11.658488504796429
11.65964502266123
11.660673454732787
11.661599293359732
11.66245202416112
11.663263172533592
11.664065378867047
11.664892092390435
11.665777513179787
11.666756455525949
11.667863778960125
11.669132963338217
11.670593310335038
11.672265106540282
11.674152143665996
11.676231198552532
11.67843926671647
11.680661974613207
11.682730353727965
11.684435550609036
11.68556647002095
11.685963390629194
13.451574884684334
13.451759500453814
13.45228958268192
13.453100579940681
13.454104288877021
13.455209042890784
13.456335871493874
13.45742698243241
13.458447110491747
13.45938033647064
13.460225275185262
13.460990416217495
13.461690452587671
13.462343742563707
13.462970720103748
13.4635930002556
13.464232919641843
13.464913250823614
13.465656850637698
13.466485984530744
13.467421034053721
13.468478264906325
13.469666302364736
13.470981137455249
13.472399815314308
13.47387391287809
13.475325256191276
13.476647640044199
13.477718139637934
13.478418630160725
13.478662724502584
15.255003934095805
15.255100387798056
15.255378865525575
15.255809487352636
15.256350539785121
15.256957273984295
15.257589474954552
15.258216048877594
15.258816480674902
15.259379987194357
15.259903568512787
15.26038983937778
15.260845162320035
15.261278259862504
15.2616992736837
15.262119172174174
15.262549384111573
15.263001521287421
15.263487061400141
15.264016853129982
15.264600293451316
15.265244027641412
15.265950032004024
15.266713080228755
15.267517803679567
15.268336039174827
15.269125681628331
15.269832586223233
15.270396686613768
15.270762071403244
15.27088872295549
17.057117277849684
17.05713752621037
17.057197025097157
17.05729226517593
17.05741808751769
17.057568496194264
17.057737460648134
17.057919536944425
17.05811024706068
17.058306217403537
17.058505150046877
17.058705687914365
17.05890723644432
17.059109781746642
17.05931371832389
17.05951969200521
17.059728456998123
17.059940735455324
17.060157070270588
17.060377660497284
17.060602170807
17.060829514045913
17.061057610122912
17.06128315477073
17.061501440542997
17.061706314687413
17.06189036754386
17.062045432920627
17.062163419889828
17.0622373798392
17.06226259162723
17.157664416676983
17.157681112468694
17.157730355640638
17.157809747256017
17.15791569680422
17.15804391891799
17.158189951252904
17.15834958868417
17.15851918726514
17.158695817872502
17.15887730285601
17.159062163160787
17.159249515457276
17.159438949264096
17.15963039618517
17.1598239998842
17.16001999052665
17.16021855786455
17.1604197194152
17.160623179205395
17.160828174797143
17.161033317364307
17.161236432177546
17.161434430212
17.161623240670835
17.161797858472482
17.161952553852934
17.16208127408042
17.16217822599532
17.162238564486966
17.16225905631668
17.258107600751615
17.25812163714947
17.258163156531268
17.258230470600783
17.258321015579725
17.258431664941735
17.25855906971618
17.258699960885412
17.2588513820345
17.259010828379907
17.25917630710901
17.259346328172004
17.259519849334474
17.259696196290044
17.259874966792907
17.26005592750881
17.260238909510864
17.260423700230795
17.26060993214669
17.260796967690126
17.260983781760828
17.261168848935974
17.261350042932648
17.26152457332672
17.261688977788175
17.261839202876928
17.261970794848043
17.262079207686085
17.262160210073134
17.262210337781347
17.262227312177888
17.358451870449
17.35846386648387
17.358499430929292
17.35855734376858
17.35863572992438
17.35873226131926
17.35884438448625
17.358969531806604
17.359105295827177
17.359249544836075
17.359400486646926
17.35955668049824
17.35971701103852
17.35988063829548
17.360046929315565
17.36021537902741
17.360385526846482
17.360556868832916
17.36072876789524
17.360900363813155
17.361070486232034
17.36123757805095
17.361399635336767
17.36155418302755
17.36169829613769
17.36182868629222
17.361941861645068
17.36203435818943
17.362103025289848
17.362145328390316
17.362159619997378
17.45870101226861
17.458711409669956
17.458742289648615
17.45879274848543
17.458861382942747
17.458946423813934
17.45904589074944
17.459157740725498
17.45927999748016
17.459410843586465
17.459548678918424
17.459692141167768
17.459840096544255
17.45999160984454
17.460145896940247
17.46030226578369
17.460460052186562
17.460618551089137
17.460776946841023
17.460934245321695
17.461089211604975
17.46124031994842
17.461385720426684
17.46152323673238
17.461650399177955
17.461764524813752
17.461862846127456
17.461942683262535
17.462001645887575
17.46203783930482
17.462050044125323
17.558857893156134
17.558867015665683
17.55889414740214
17.558938602851974
17.55899930807408
17.55907489075536
17.559163787219617
17.55926434759074
17.559374931700987
17.559493980798166
17.559620067722307
17.559751919560703
17.559888417573937
17.56002858052607
17.560171532589443
17.56031646056413
17.560462566027603
17.560609013377874
17.560754877553453
17.560899094527223
17.5610404181517
17.561177389129096
17.561308318776156
17.561431298528568
17.561544235716287
17.56164492293652
17.561731139501106
17.561800779444358
17.561851995594175
17.561883342245896
17.561893896858273
17.655715170229715
17.65572325849763
17.655747341003313
17.65578688568424
17.6558410524124
17.655908754810483
17.655988735329856
17.65607964037548
17.656180091521684
17.65628874071023
17.656404311882092
17.656525622690772
17.65665158923307
17.6567812180143
17.656913585075593
17.657047805898912
17.657183000953495
17.65731825774056
17.657452592942153
17.657584917599056
17.657714008446103
17.65783849012816
17.657956829658715
17.658067351482764
17.658168271653924
17.658257755849803
17.65833399854558
17.658395318384198
17.658440262058743
17.658467704621284
17.65847693350369
17.74604219536844
17.7460494315455
17.746070995911793
17.746106466237002
17.746155171119202
17.74621623309886
17.74628862208974
17.74637120952616
17.74646282150965
17.746562281095095
17.746668442255924
17.746780209408325
17.746896544424686
17.747016464168205
17.747139027703486
17.747263315921128
17.747388407709636
17.747513353269046
17.747637147781155
17.74775870798019
17.747876854196644
17.74799030165026
17.748097661394837
17.74819745744966
17.748288157550036
17.748368220786837
17.74843615918781
17.748490609120893
17.74853040700314
17.74855466086303
17.74856280936751
17.82980728688912
17.829813813595287
17.82983327716273
17.82986533517385
17.82990943970721
17.829964867856642
17.830030760295333
17.83010616067856
17.830190055606778
17.83028140702966
17.83037917978675
17.830482358633887
17.830589956153755
17.830701013852206
17.830814595143465
17.83092977229778
17.83104561083549
17.83116115165682
17.831275393658764
17.831387278937513
17.831495682601926
17.831599410180626
17.831697202359834
17.831787752300336
17.831869732463197
17.831941833408766
17.832002811754904
17.832051544009133
17.832087082368233
17.83210870649988
17.83211596569067
17.906981010801175
17.906986942148144
17.907004639919094
17.90703382049573
17.907074027495785
17.907124653688534
17.907184969232024
17.907254150648793
17.907331311176783
17.907415525711272
17.9075058531666
17.907601351136613
17.90770108397669
17.90780412615547
17.907909559335522
17.908016464761793
17.90812391389135
17.908230957264937
17.908336613916536
17.908439862987073
17.908539639083784
17.908634833731696
17.90872430221126
17.908806880122047
17.908881406430837
17.9089467550237
17.909001872234178
17.909045817784495
17.909077806403953
17.909097245827912
17.909103767367228
17.97753613604849
17.977541565286284
17.977557771814723
17.977584515869953
17.977621409725444
17.977667933658953
17.977723456946016
17.97778725942161
17.97785855481912
17.9779365101263
17.978020263870846
17.97810893872221
17.97820164939246
17.97829750739597
17.978395621012922
17.9784950916704
17.978595009220136
17.978694445868097
17.978792450643727
17.978888045693058
17.978980225535306
17.979067961131484
17.979150207779064
17.97922592052019
17.979294073835142
17.979353687390596
17.979403855635038
17.979443779264273
17.97947279666394
17.979490412198203
17.97949631872817
18.041447617718138
18.04145262263102
18.041467567528358
18.041492245705978
18.041526321456047
18.04156934188026
18.041620752760576
18.04167991482435
18.04174612196314
18.041818616431655
18.041896603974347
18.04197926471896
18.04206576074753
18.042155241715584
18.04224684682795
18.04233970411496
18.042432929121887
18.042525622570214
18.042616868531837
18.042705734082865
18.04279127125436
18.04287252274744
18.042948530257377
18.043018348620055
18.043081062657524
18.043135808346943
18.04318179640609
18.043218336777343
18.04324486272005
18.043260952192647
18.0432663447077
18.098692980709416
18.098697627483862
18.09871150657194
18.098734436406897
18.098766121016883
18.098806158914478
18.09885405532077
18.098909234633165
18.0989710549021
18.099038819949687
18.099111792074304
18.099189201567327
18.09927025391381
18.09935413591755
18.099440019066986
18.09952706088654
18.099614406093664
18.099701186970794
18.099786524210412
18.09986952894362
18.099949306520806
18.10002496322173
18.100095614646055
18.100160398645667
18.100218489820616
18.10026911711188
18.100311582845926
18.10034528206406
18.100369721277012
18.100384534895888
18.100389498065738
18.149251614281905
18.14925596033129
18.149268943812043
18.149290402380583
18.149320070578934
18.149357586655398
18.149402502180802
18.149454291788004
18.149512364913452
18.14957607564244
18.14964473357204
18.149717612240465
18.14979395597096
18.14987298627693
18.149953906176137
18.15003590301111
18.150118151365145
18.150199815374357
18.15028005146782
18.150358012047285
18.150432850485355
18.150503728401628
18.150569823923103
18.15063034352435
18.15068453462386
18.150731700407544
18.150771215451325
18.150802541241124
18.1508252410366
18.150838992732986
18.150843598818504
18.19310573850769
18.1931098345631
18.19312207308295
18.19314230644607
18.19317029265178
18.193205700672248
18.193248118200795
18.193297059431334
18.193351974804465
18.193412259182978
18.193477261325913
18.19354629147282
18.193618627869558
18.193693523312273
18.19377021009833
18.19384790387284
18.193925807779635
18.194003116140443
18.194079018518526
18.194152704525912
18.194223369612423
18.194290222633164
18.194352493885972
18.19440944601227
18.194460385083744
18.194504673300074
18.19454174204379
18.19457110458868
18.19459236812478
18.19460524404052
18.19460955581541
18.23023952238839
18.230243414085113
18.230255043349498
18.230274273781212
18.230300881316374
18.230334558540097
18.230374921099873
18.230421514083105
18.230473820314998
18.230531267317822
18.230593235748337
18.230659066336223
18.230728066140344
18.230799515146717
18.23087267163875
18.230946776749345
18.231021059464098
18.231094741247876
18.231167041016178
18.23123718069739
18.231304391520517
18.23136792170564
18.2314270442502
18.231481067051085
18.231529342813168
18.231571280134492
18.231606354649838
18.231634119675554
18.231654216170874
18.23166638115953
18.231670454141994
18.260639821563945
18.26064355066501
18.260654695007144
18.260673126614783
18.260698634929124
18.260730930390732
18.260769649909133
18.26081436224858
18.260864575288863
18.26091974211096
18.260979268674532
18.261042520273193
18.261108827573008
18.26117749321665
18.261247797463408
18.261319003216645
18.261390361602906
18.26146111724127
18.261530513824056
18.26159780017251
18.261662236828272
18.261723103770727
18.261779707964124
18.261831392857644
18.261877547397123
18.261917615909983
18.261951107848276
18.261977606939308
18.26199677966404
18.26200838235088
18.26201226653617
18.28429582376956
18.284299429139143
18.284310204366523
18.284328027599095
18.284352698115587
18.284383939408677
18.28442140400381
18.284464678161214
18.284513288414214
18.2845667070454
18.284624359224207
18.28468562911381
18.284749865742427
18.284816389591835
18.28488449840496
18.284953472524144
18.285022580847738
18.28509108652222
18.285158252919494
18.285223350004877
18.28528566110533
18.285344490607066
18.285399171299385
18.28544907340226
18.285493612921513
18.285532260670134
18.285564551016744
18.28559008998451
18.285608562692794
18.285619739527284
18.28562348077196
18.3011989715413
18.30120248994228
18.301213005675326
18.30123040104691
18.301254482029588
18.301284981020903
18.3013215612382
18.30136382097627
18.301411299671038
18.301463482975997
18.301519809539837
18.30157967687863
18.30164244712955
18.30170745361782
18.30177400676306
18.30184139960971
18.301908914017613
18.301975826616935
18.302041415029603
18.302104964424338
18.30216577438162
18.30222316655735
18.30227649187352
18.302325139215093
18.302368543337796
18.30240619330823
18.302437640589673
18.30246250644532
18.302480488697203
18.302491367290706
18.302495008450027
18.311343299599674
18.311346766369287
18.31135712802699
18.311374269293214
18.311398000030152
18.311428057818986
18.311464112115985
18.31150576825967
18.311552573266113
18.31160402067848
18.31165955713906
18.31171858812597
18.311780483636976
18.311844584739738
18.311910209529415
18.311976658763054
18.312043222176595
18.312109184582688
18.312173832223507
18.31223645942428
18.312296375505042
18.31235291241652
18.31240543183616
18.312453333669485
18.31249606369771
18.31253312168313
18.31256406907559
18.31258853601937
18.312606227724523
18.312616929688346
18.312620511581567
18.31472513505877
18.314728584708227
18.314738895273848
18.314755952267543
18.314779566827546
18.314809478237176
18.31484535800374
18.314886813785023
18.314933395097473
18.314984598092565
18.315039872061746
18.315098625128826
18.31516022991078
18.31522403006175
18.315289346246416
18.315355481807185
18.31542172912117
18.315487375743125
18.315551710799646
18.315614031673288
18.315673650928126
18.31572990393518
18.315782155936482
18.315829810481752
18.315872316990603
18.315909178748733
18.315939960490827
18.31596429527882
18.3159818907475
18.31599253421496
18.315996096481744
