# vtk DataFile Version 2.0
Unstructured Grid Example
ASCII
DATASET UNSTRUCTURED_GRID

POINTS 961 float
0.400000004 0.01999999956 0
0.3866666556 0.01999999956 0
0.3733333348 0.01999999956 0
0.3600000144 0.01999999956 0
0.346666664 0.01999999956 0
0.3333333432 0.01999999956 0
0.3199999928 0.01999999956 0
0.3066666724 0.01999999956 0
0.293333322 0.01999999956 0
0.2800000012 0.01999999956 0
0.2666666804 0.01999999956 0
0.25333333 0.01999999956 0
0.2399999948 0.01999999956 0
0.226666674 0.01999999956 0
0.2133333384 0.01999999956 0
0.2000000028 0.01999999956 0
0.1866666676 0.01999999956 0
0.173333332 0.01999999956 0
0.1599999964 0.01999999956 0
0.1466666608 0.01999999956 0
0.1333333404 0.01999999956 0
0.1199999972 0.01999999956 0
0.1066666692 0.01999999956 0
0.0933333336 0.01999999956 0
0.0799999984 0.01999999956 0
0.06666667 0.01999999956 0
0.0533333348 0.01999999956 0
0.03999999912 0.01999999956 0
0.02666666732 0.01999999956 0
0.01333333364 0.01999999956 0
0.0 0.01999999956 0
0.400000004 0.00666666684 0
0.3866666556 0.00666666684 0
0.3733333348 0.00666666684 0
0.3600000144 0.00666666684 0
0.346666664 0.00666666684 0
0.3333333432 0.00666666684 0
0.3199999928 0.00666666684 0
0.3066666724 0.00666666684 0
0.293333322 0.00666666684 0
0.2800000012 0.00666666684 0
0.2666666804 0.00666666684 0
0.25333333 0.00666666684 0
0.2399999948 0.00666666684 0
0.226666674 0.00666666684 0
0.2133333384 0.00666666684 0
0.2000000028 0.00666666684 0
0.1866666676 0.00666666684 0
0.173333332 0.00666666684 0
0.1599999964 0.00666666684 0
0.1466666608 0.00666666684 0
0.1333333404 0.00666666684 0
0.1199999972 0.00666666684 0
0.1066666692 0.00666666684 0
0.0933333336 0.00666666684 0
0.0799999984 0.00666666684 0
0.06666667 0.00666666684 0
0.0533333348 0.00666666684 0
0.03999999912 0.00666666684 0
0.02666666732 0.00666666684 0
0.01333333364 0.00666666684 0
0.0 0.00666666684 0
0.400000004 -0.00666666684 0
0.3866666556 -0.00666666684 0
0.3733333348 -0.00666666684 0
0.3600000144 -0.00666666684 0
0.346666664 -0.00666666684 0
0.3333333432 -0.00666666684 0
0.3199999928 -0.00666666684 0
0.3066666724 -0.00666666684 0
0.293333322 -0.00666666684 0
0.2800000012 -0.00666666684 0
0.2666666804 -0.00666666684 0
0.25333333 -0.00666666684 0
0.2399999948 -0.00666666684 0
0.226666674 -0.00666666684 0
0.2133333384 -0.00666666684 0
0.2000000028 -0.00666666684 0
0.1866666676 -0.00666666684 0
0.173333332 -0.00666666684 0
0.1599999964 -0.00666666684 0
0.1466666608 -0.00666666684 0
0.1333333404 -0.00666666684 0
0.1199999972 -0.00666666684 0
0.1066666692 -0.00666666684 0
0.0933333336 -0.00666666684 0
0.0799999984 -0.00666666684 0
0.06666667 -0.00666666684 0
0.0533333348 -0.00666666684 0
0.03999999912 -0.00666666684 0
0.02666666732 -0.00666666684 0
0.01333333364 -0.00666666684 0
0.0 -0.00666666684 0
0.400000004 -0.01999999956 0
0.3866666556 -0.01999999956 0
0.3733333348 -0.01999999956 0
0.3600000144 -0.01999999956 0
0.346666664 -0.01999999956 0
0.3333333432 -0.01999999956 0
0.3199999928 -0.01999999956 0
0.3066666724 -0.01999999956 0
0.293333322 -0.01999999956 0
0.2800000012 -0.01999999956 0
0.2666666804 -0.01999999956 0
0.25333333 -0.01999999956 0
0.2399999948 -0.01999999956 0
0.226666674 -0.01999999956 0
0.2133333384 -0.01999999956 0
0.2000000028 -0.01999999956 0
0.1866666676 -0.01999999956 0
0.173333332 -0.01999999956 0
0.1599999964 -0.01999999956 0
0.1466666608 -0.01999999956 0
0.1333333404 -0.01999999956 0
0.1199999972 -0.01999999956 0
0.1066666692 -0.01999999956 0
0.0933333336 -0.01999999956 0
0.0799999984 -0.01999999956 0
0.06666667 -0.01999999956 0
0.0533333348 -0.01999999956 0
0.03999999912 -0.01999999956 0
0.02666666732 -0.01999999956 0
0.01333333364 -0.01999999956 0
0.0 -0.01999999956 0
0.400000004 -0.03333333508 0
0.3866666556 -0.03333333508 0
0.3733333348 -0.03333333508 0
0.3600000144 -0.03333333508 0
0.346666664 -0.03333333508 0
0.3333333432 -0.03333333508 0
0.3199999928 -0.03333333508 0
0.3066666724 -0.03333333508 0
0.293333322 -0.03333333508 0
0.2800000012 -0.03333333508 0
0.2666666804 -0.03333333508 0
0.25333333 -0.03333333508 0
0.2399999948 -0.03333333508 0
0.226666674 -0.03333333508 0
0.2133333384 -0.03333333508 0
0.2000000028 -0.03333333508 0
0.1866666676 -0.03333333508 0
0.173333332 -0.03333333508 0
0.1599999964 -0.03333333508 0
0.1466666608 -0.03333333508 0
0.1333333404 -0.03333333508 0
0.1199999972 -0.03333333508 0
0.1066666692 -0.03333333508 0
0.0933333336 -0.03333333508 0
0.0799999984 -0.03333333508 0
0.06666667 -0.03333333508 0
0.0533333348 -0.03333333508 0
0.03999999912 -0.03333333508 0
0.02666666732 -0.03333333508 0
0.01333333364 -0.03333333508 0
0.0 -0.03333333508 0
0.400000004 -0.0466666668 0
0.3866666556 -0.0466666668 0
0.3733333348 -0.0466666668 0
0.3600000144 -0.0466666668 0
0.346666664 -0.0466666668 0
0.3333333432 -0.0466666668 0
0.3199999928 -0.0466666668 0
0.3066666724 -0.0466666668 0
0.293333322 -0.0466666668 0
0.2800000012 -0.0466666668 0
0.2666666804 -0.0466666668 0
0.25333333 -0.0466666668 0
0.2399999948 -0.0466666668 0
0.226666674 -0.0466666668 0
0.2133333384 -0.0466666668 0
0.2000000028 -0.0466666668 0
0.1866666676 -0.0466666668 0
0.173333332 -0.0466666668 0
0.1599999964 -0.0466666668 0
0.1466666608 -0.0466666668 0
0.1333333404 -0.0466666668 0
0.1199999972 -0.0466666668 0
0.1066666692 -0.0466666668 0
0.0933333336 -0.0466666668 0
0.0799999984 -0.0466666668 0
0.06666667 -0.0466666668 0
0.0533333348 -0.0466666668 0
0.03999999912 -0.0466666668 0
0.02666666732 -0.0466666668 0
0.01333333364 -0.0466666668 0
0.0 -0.0466666668 0
0.400000004 -0.0599999988 0
0.3866666556 -0.0599999988 0
0.3733333348 -0.0599999988 0
0.3600000144 -0.0599999988 0
0.346666664 -0.0599999988 0
0.3333333432 -0.0599999988 0
0.3199999928 -0.0599999988 0
0.3066666724 -0.0599999988 0
0.293333322 -0.0599999988 0
0.2800000012 -0.0599999988 0
0.2666666804 -0.0599999988 0
0.25333333 -0.0599999988 0
0.2399999948 -0.0599999988 0
0.226666674 -0.0599999988 0
0.2133333384 -0.0599999988 0
0.2000000028 -0.0599999988 0
0.1866666676 -0.0599999988 0
0.173333332 -0.0599999988 0
0.1599999964 -0.0599999988 0
0.1466666608 -0.0599999988 0
0.1333333404 -0.0599999988 0
0.1199999972 -0.0599999988 0
0.1066666692 -0.0599999988 0
0.0933333336 -0.0599999988 0
0.0799999984 -0.0599999988 0
0.06666667 -0.0599999988 0
0.0533333348 -0.0599999988 0
0.03999999912 -0.0599999988 0
0.02666666732 -0.0599999988 0
0.01333333364 -0.0599999988 0
0.0 -0.0599999988 0
0.400000004 -0.0733333304 0
0.3866666556 -0.0733333304 0
0.3733333348 -0.0733333304 0
0.3600000144 -0.0733333304 0
0.346666664 -0.0733333304 0
0.3333333432 -0.0733333304 0
0.3199999928 -0.0733333304 0
0.3066666724 -0.0733333304 0
0.293333322 -0.0733333304 0
0.2800000012 -0.0733333304 0
0.2666666804 -0.0733333304 0
0.25333333 -0.0733333304 0
0.2399999948 -0.0733333304 0
0.226666674 -0.0733333304 0
0.2133333384 -0.0733333304 0
0.2000000028 -0.0733333304 0
0.1866666676 -0.0733333304 0
0.173333332 -0.0733333304 0
0.1599999964 -0.0733333304 0
0.1466666608 -0.0733333304 0
0.1333333404 -0.0733333304 0
0.1199999972 -0.0733333304 0
0.1066666692 -0.0733333304 0
0.0933333336 -0.0733333304 0
0.0799999984 -0.0733333304 0
0.06666667 -0.0733333304 0
0.0533333348 -0.0733333304 0
0.03999999912 -0.0733333304 0
0.02666666732 -0.0733333304 0
0.01333333364 -0.0733333304 0
0.0 -0.0733333304 0
0.400000004 -0.086666666 0
0.3866666556 -0.086666666 0
0.3733333348 -0.086666666 0
0.3600000144 -0.086666666 0
0.346666664 -0.086666666 0
0.3333333432 -0.086666666 0
0.3199999928 -0.086666666 0
0.3066666724 -0.086666666 0
0.293333322 -0.086666666 0
0.2800000012 -0.086666666 0
0.2666666804 -0.086666666 0
0.25333333 -0.086666666 0
0.2399999948 -0.086666666 0
0.226666674 -0.086666666 0
0.2133333384 -0.086666666 0
0.2000000028 -0.086666666 0
0.1866666676 -0.086666666 0
0.173333332 -0.086666666 0
0.1599999964 -0.086666666 0
0.1466666608 -0.086666666 0
0.1333333404 -0.086666666 0
0.1199999972 -0.086666666 0
0.1066666692 -0.086666666 0
0.0933333336 -0.086666666 0
0.0799999984 -0.086666666 0
0.06666667 -0.086666666 0
0.0533333348 -0.086666666 0
0.03999999912 -0.086666666 0
0.02666666732 -0.086666666 0
0.01333333364 -0.086666666 0
0.0 -0.086666666 0
0.400000004 -0.1000000016 0
0.3866666556 -0.1000000016 0
0.3733333348 -0.1000000016 0
0.3600000144 -0.1000000016 0
0.346666664 -0.1000000016 0
0.3333333432 -0.1000000016 0
0.3199999928 -0.1000000016 0
0.3066666724 -0.1000000016 0
0.293333322 -0.1000000016 0
0.2800000012 -0.1000000016 0
0.2666666804 -0.1000000016 0
0.25333333 -0.1000000016 0
0.2399999948 -0.1000000016 0
0.226666674 -0.1000000016 0
0.2133333384 -0.1000000016 0
0.2000000028 -0.1000000016 0
0.1866666676 -0.1000000016 0
0.173333332 -0.1000000016 0
0.1599999964 -0.1000000016 0
0.1466666608 -0.1000000016 0
0.1333333404 -0.1000000016 0
0.1199999972 -0.1000000016 0
0.1066666692 -0.1000000016 0
0.0933333336 -0.1000000016 0
0.0799999984 -0.1000000016 0
0.06666667 -0.1000000016 0
0.0533333348 -0.1000000016 0
0.03999999912 -0.1000000016 0
0.02666666732 -0.1000000016 0
0.01333333364 -0.1000000016 0
0.0 -0.1000000016 0
0.400000004 -0.1133333372 0
0.3866666556 -0.1133333372 0
0.3733333348 -0.1133333372 0
0.3600000144 -0.1133333372 0
0.346666664 -0.1133333372 0
0.3333333432 -0.1133333372 0
0.3199999928 -0.1133333372 0
0.3066666724 -0.1133333372 0
0.293333322 -0.1133333372 0
0.2800000012 -0.1133333372 0
0.2666666804 -0.1133333372 0
0.25333333 -0.1133333372 0
0.2399999948 -0.1133333372 0
0.226666674 -0.1133333372 0
0.2133333384 -0.1133333372 0
0.2000000028 -0.1133333372 0
0.1866666676 -0.1133333372 0
0.173333332 -0.1133333372 0
0.1599999964 -0.1133333372 0
0.1466666608 -0.1133333372 0
0.1333333404 -0.1133333372 0
0.1199999972 -0.1133333372 0
0.1066666692 -0.1133333372 0
0.0933333336 -0.1133333372 0
0.0799999984 -0.1133333372 0
0.06666667 -0.1133333372 0
0.0533333348 -0.1133333372 0
0.03999999912 -0.1133333372 0
0.02666666732 -0.1133333372 0
0.01333333364 -0.1133333372 0
0.0 -0.1133333372 0
0.400000004 -0.1266666652 0
0.3866666556 -0.1266666652 0
0.3733333348 -0.1266666652 0
[...]
POINT_DATA 961
SCALARS Temp float 1
LOOKUP_TABLE default
0.7740765480642687
0.8050181292323444
0.8272752463933024
0.8435085441131528
0.8554495002593663
0.864285567002352
0.8708624031707588
0.8757890380654594
0.8795091616356612
0.8823483154110586
0.8845483380195925
0.8862912377189914
0.8877166069438678
0.8889351799781029
0.8900389427667464
0.8911091488139407
0.8922236635870708
0.8934637129265798
0.8949209739750619
0.8967056894869521
0.8989565519132641
0.9018537244190059
0.9056354327561975
0.910621560243231
0.9172453180752451
0.9260982092343644
0.9379941067932548
0.9540630341550165
0.9758941552016908
1.0057932422014093
1.0474245735245995
0.8166819043241552
0.8470192394633002
0.8690379587184157
0.8851824928983696
0.897082490400005
0.9059015950413939
0.9124731875418166
0.9174004455837025
0.921123996358449
0.9239677830467317
0.9261728192234326
0.9279207205443396
0.9293509352847934
0.9305741867191603
0.931682523748823
0.9327573062489508
0.9338765215697009
0.9351215161375368
0.9365840665042025
0.9383744645543113
0.9406313556520941
0.94353467193768
0.9473220919127154
0.9523123689926862
0.9589365423219395
0.9677819947128671
0.9796547020963035
0.9956683977476007
1.0173782806533138
1.0469735230716566
1.0876209914354078
2.811145075109316
2.8156684050565572
2.8282755534534885
2.839936380910832
2.8496142963831077
2.8573501296423176
2.863442525938035
2.868215667423915
2.8719578573730242
2.874908893172334
2.8772632325922904
2.879177655983408
2.880779613596674
2.882175049698241
2.88345536949011
2.884703669526056
2.886000533929074
2.887429717682361
2.889084023859991
2.891071739255443
2.893523985887247
2.8966032285506835
2.900513072439892
2.9055089511264116
2.911907973099121
2.920092699223356
2.930493838043968
2.943507188718926
2.9591821473473927
2.976111976914499
2.9821899415049455
4.7803360898564256
4.782809517314226
4.788887228693489
4.796495711339014
4.803733662466693
4.810036218212675
4.815308291142894
4.819633443831011
4.823152826678553
4.826016080328194
4.828362538221637
4.830315528621927
4.831982506253494
4.833457701381165
4.834825750068985
4.836165689087945
4.837555099143206
4.839074328063206
4.840810824892314
4.842863591451459
4.84534764816905
4.848398189223699
4.852173473774179
4.856854534407222
4.8626371168115785
4.869705992271892
4.878168831540489
4.887893294660479
4.898115636628829
4.906280774760673
4.909602828555785
6.743434263818905
6.744755294585174
6.748328371849427
6.753175153163763
6.7583515283102615
6.763235251231562
6.767568391181657
6.7712880798632415
6.774426845132444
6.777058540643223
6.7792710208488
6.7811530933718815
6.782789143189435
6.784257838546793
6.78563294868305
6.786985268883054
6.788385117159244
6.789905066774775
6.791622698169451
6.793623115685515
6.796000818607067
6.798860202283962
6.8023132486054685
6.806471904616551
6.811430208043493
6.817227232316554
6.823774364775365
6.830721226183208
6.837228951336304
6.842027308110218
6.843801477034061
8.702756413645378
8.703564055258507
8.705800704639586
8.70900859376613
8.712657470465768
8.716323583318655
8.719747211020021
8.722810045992713
8.72548340137397
8.72778905967591
8.729774436438412
8.731498114376516
8.733022132993463
8.734408445729336
8.735717829972165
8.737010224488584
8.738345850156279
8.739786644040592
8.74139764629368
8.743247937193383
8.745410566085365
8.747960626186835
8.75097003265355
8.754496844346434
8.758565551904507
8.763133444113945
8.76803796691987
8.772927073851537
8.777229047227982
8.780229864334247
8.781313635889557
10.659453325655933
10.659969965852772
10.661427748455491
10.663586555815673
10.666145977817438
10.668831214395352
10.671442403817744
10.673861719114091
10.676037482216943
10.677962685867781
10.679657507184519
10.681157171963203
10.682504397981113
10.683745167146627
10.684926694567462
10.686096784731248
10.687303985970306
10.688598061736789
10.690030378421753
10.691653770817595
10.693521324945273
10.695683319035293
10.698181191855099
10.701037150315937
10.704237653637385
10.707709718939277
10.711292042092527
10.714713569448108
10.717603139896088
10.71955574230132
10.720247959637204
12.614032713602606
12.614367241550807
12.615321665416541
12.616764769329187
12.618523102500722
12.620425013361867
12.62233166391767
12.624149199580737
12.625826292753361
12.627344750749021
12.62870920696347
12.629938620162646
12.631060253619834
12.632105864509898
12.633109534751583
12.634106621295851
12.635133379899337
12.63622685537163
12.637424680832758
12.638764398114104
12.640281835012168
12.642007974204228
12.64396358571511
12.64615097135378
12.64854239282818
12.65106607610656
12.653593572896666
12.655936384953094
12.657862368714152
12.659137382515162
12.659584474700038
14.56674918343549
14.566957194918658
14.567555091469382
14.56847184920089
14.56961033808569
14.570869461857301
14.572161902553113
14.57342346593642
14.574614616155827
14.575717036855439
14.57672839258354
14.577657239648772
14.57851900505157
14.579333197416023
14.580121648630099
14.580907510849304
14.581714726925366
14.58256768721135
14.583490810715507
14.584507768052493
14.585640025634579
14.58690435974865
14.588308954169266
14.589847896873888
14.591494246883556
14.593192900639151
14.5948559587838
14.596364732462549
14.597582329071606
14.598377474863033
14.59865428032122
16.517730803993004
16.517841249331457
16.518160588345687
16.51865586742487
16.51928103183166
16.51998657969277
16.52072787808877
16.5214702164346
16.522190433532575
16.522876014508395
16.52352297574706
16.524133499901673
16.52471389415747
16.52527306878482
16.525821500312745
16.526370572815946
16.526932165384505
16.527518334664336
16.52814095226474
16.528811145963193
16.529538380748562
16.530329017482735
16.53118419581367
16.532097048547104
16.53304947967846
16.534009275102093
16.534928886685993
16.535747588106805
16.536398281033534
16.536818658162094
16.536964185245388
18.467044356019322
18.46707032705648
18.467146832235024
18.467269899853964
18.46743366917899
18.46763128457205
18.46785578051334
18.4681007682019
18.468360858883607
18.46863182190319
18.468910560679518
18.469194970783825
18.469483749514588
18.469776201918922
18.47007205612389
18.470371294588148
18.470674001294864
18.4709802112745
18.47128975289585
18.471602071469732
18.471916024880723
18.47222965099714
18.472539909333733
18.47284243642628
18.473131359362906
18.473399262336667
18.473637408338014
18.47383630497001
18.473986635177067
18.474080445486713
18.47411235145148
18.575787358489993
18.575809402776915
18.575874569468326
18.575980107341124
18.576121880224086
18.57629491449676
18.576493971622025
18.57671402885871
18.576950619086812
18.577200004624455
18.577459224307248
18.57772604109314
18.577998834362894
18.57827647083154
18.578558165849934
18.578843344920074
18.5791315106951
18.57942210817296
18.579714384794897
18.580007240641265
18.580299066319036
18.580587574495322
18.580869631995235
18.581141128650103
18.58139691337718
18.581630858532694
18.581836103426628
18.582005509415048
18.582132313750265
18.582210898554475
18.582237530283454
18.68439728441654
18.684416420312004
18.684473141164755
18.684565476128373
18.684690416665184
18.68484426209075
18.68502299703902
18.685222627177772
18.685439440314447
18.685670163690272
18.68591203666574
18.68616280601067
18.68642067074455
18.68668420036456
18.686952234745235
18.68722377559156
18.687497877106512
18.68777353254731
18.688049557566952
18.68832446991167
18.688596367063262
18.688862810269228
18.68912072201848
18.68936632677039
18.689595152628186
18.689802131809767
18.689981822494723
18.690128759451024
18.69023791305004
18.690305196780884
18.690327935315366
18.792879690682867
18.79289663564558
18.79294696571089
18.793029222957944
18.793141153039347
18.793279929250478
18.79344240624586
18.79362535554762
18.793825662430084
18.794040457238935
18.79426719167983
18.794503657162462
18.79474796138668
18.794998479457355
18.79525378419446
18.795512564258317
18.795773538403374
18.796035364706242
18.796296548085348
18.796555348178025
18.796809691070983
18.79705709365677
18.797294606032242
18.79751879539379
18.797725779624763
18.79791133385887
18.798071077838365
18.798200741368497
18.798296488803555
18.79835526091723
18.798375079822602
18.901238690416
18.901253967739017
18.901299416336308
18.901373922904114
18.90147574680262
18.901602668993057
18.90175216593343
18.90192157620435
18.902108248141964
18.902309645316233
18.902523416976496
18.902747425847178
18.902979743092068
18.903218621596896
18.903462449313032
18.903709689694903
18.903958817283993
18.90420824825542
18.9044562703817
18.90470097563026
18.9049401994775
18.905171474992255
18.90539200504207
18.905598670873193
18.905788078914647
18.90595666039006
18.906100824274283
18.90621715752676
18.906302657217243
18.906354965752705
18.90637257500266
19.009477319517067
19.009491323909977
19.00953303622186
19.009601578532088
19.009695564905137
19.009813202752476
19.009952414456855
19.01011095664388
19.010286531215424
19.01047686859458
19.010679789215825
19.010893233750082
19.011115268258063
19.011344072119307
19.011577908375738
19.011815082054007
19.012053893868494
19.0122925893693
19.012529308305503
19.012762037722183
19.012988572731913
19.013206491914158
19.013413148817126
19.01360569392935
19.013781125006414
19.013936375316437
19.01406843700373
19.014174512988046
19.01425218573213
19.01429958283078
19.01431551743787
19.11357622651798
19.11358920027171
19.11362787822677
19.113691547465343
19.11377907309223
19.113888968746284
19.114019483371006
19.11416868768812
19.114334558323748
19.114515043059974
19.114708113083672
19.11491179225133
19.115124167556143
19.115343386579987
19.115567640173687
19.11579513471809
19.116024060589712
19.116252556766074
19.116478676174516
19.116700355124788
19.11691539027499
19.11712142894238
19.117315972744063
19.117496406142212
19.11766004546246
19.117804215109
19.117926346857434
19.118024096227835
19.118095467361197
19.11813893224966
19.1181535298898
19.209519808548517
19.209531871691137
19.209567859449777
19.209627178811665
19.20970887901889
19.20981170157736
19.20993414329887
19.210074519770313
19.210231029666975
19.21040180582971
19.21058495909372
19.210778605126258
19.210980877365174
19.21118993055288
19.211403932257014
19.21162104577779
19.211839410279904
19.21205711779825
19.212272191301153
19.212482566736703
19.212686081898656
19.212880476879484
19.213063405018232
19.21323246391037
19.213385240827492
19.21351937766738
19.21363265100468
19.213723062164824
19.213788931135724
19.21382898417198
19.21384242543506
19.29735277289385
19.297364010070563
19.297397550826645
19.297452891496707
19.297529219721252
19.297625450574785
19.29774027320494
19.297872198029346
19.298019606462052
19.29818079103866
19.298353992065476
19.298537421601736
19.298729277274962
19.298927749612947
19.299131019810957
19.29933725060397
19.29954457535988
19.299751084721656
19.299954814468183
19.30015373702695
19.30034575886932
19.300528727668457
19.30070044740078
19.300858709505356
19.301001333913003
19.30112622415421
19.3012314322707
19.3013152293796
19.301376177486773
19.30141319514234
19.301425610355672
19.37716636028613
19.37717683505725
19.377208112111017
19.37725975605381
19.377331061137056
19.377421077830338
19.37752864795749
19.37765244028281
19.377790989467137
19.377942727818535
19.378106016028518
19.37827916436725
19.378460446512157
19.37864810916834
19.37884037417728
19.379035435232904
19.379231453683822
19.379426552459588
19.37961881127248
19.37980626504651
19.379986907266037
19.38015870140097
19.380319598131898
19.38046756541832
19.380600625097514
19.38071689968838
19.380814665469153
19.380892408491206
19.38094888042638
19.38098314873547
19.38099463658825
19.44909243584578
19.449102200700246
19.449131366341334
19.449179550812126
19.44924613244391
19.449330269752522
19.449430928398606
19.449546908418036
19.449676875187293
19.449819384802257
19.449972910035044
19.450135859018992
19.450306588647823
19.450483415488257
19.450664620843042
19.450848451667625
19.451033121271294
19.451216808607764
19.451397658830786
19.45157378663777
19.45174328364555
19.45190423237766
19.45205472432823
19.45219288833086
19.452316923035518
19.452425136831735
19.452515991685317
19.452588148220926
19.452640509888884
19.452672262030323
19.45268290261372
19.513296052305055
19.513305155605646
19.51333235119708
19.513377299848713
19.5134394475904
19.513518040881074
19.5136121476856
19.513720678641896
19.513842412063173
19.513976014476647
19.51412006275404
19.514273060627506
19.514433451454273
19.514599629767986
19.514769948293914
19.514942721816247
19.515116231363372
19.515288727345975
19.515458433908698
19.515623555658486
19.515782287654787
19.51593283078622
19.516073409879347
19.51620230012924
19.51631785589948
19.516418544997265
19.516502985279157
19.51656998145507
19.516618560604588
19.51664800316248
19.516657867055173
19.569967212140437
19.56997570280955
19.570001072350504
19.570043016270827
19.570101035988777
19.570174450615003
19.570262413748676
19.570363930212054
19.570477876576405
19.570603018023334
19.570738027426902
19.570881500038606
19.571031965546148
19.57118789984089
19.57134773326947
19.571509856517636
19.57167262720088
19.57183437568372
19.571993412039557
19.572148035022742
19.572296543659032
19.57243725322405
19.57256851292888
19.572688730386616
19.572796397214532
19.57289011869679
19.572968644715488
19.573030900236127
19.573076014347095
19.57310334528652
19.573112499764992
19.61931074445876
19.619318674984374
19.619342373797934
19.61938156494232
19.619435795582977
19.619504445341345
19.619586739948364
19.619681764719623
19.61978848170449
19.619905743752906
19.620032311176473
19.620166864911287
19.62030801787489
19.620454326685778
19.62060430064903
19.620756408972014
19.62090908895764
19.621060753631372
19.62120980042672
19.621354621572234
19.621493616573915
19.62162520828609
19.621747859923687
19.621860097663177
19.62196053351341
19.622047891228632
19.622121032777063
19.622178983976394
19.62222095864079
19.622246379167223
19.622254892304188
19.661537454686552
19.661544882843145
19.66156708251868
19.661603801244407
19.661654624015693
19.661718980844924
19.66179615809559
19.661885309552986
19.661985471021293
19.662095572269198
19.662214451777324
19.662340868652116
19.66247351332814
19.662611019086906
19.662751971433526
19.662894916154304
19.66303836853148
19.663180822141204
19.66332075862843
19.663456658925
19.663587016147932
19.663710351456245
19.6638252302862
19.663930283258583
19.66402422675532
19.664105885804368
19.664174217043964
19.66422833062691
19.664267510655286
19.66429123243574
19.664299175604544
19.696853482123533
19.696860471738468
19.696881362282785
19.69691592046375
19.696963762277097
19.697024359265075
19.697097048138602
19.697181040078274
19.69727543340843
19.697379223942843
19.697491318233016
19.69761054447423
19.69773566262573
19.69786537565567
19.69799833908557
19.698133169549543
19.698268454623825
19.698402762346465
19.698534651638216
19.698662683958368
19.698785436317383
19.69890151676058
19.699009579823695
19.69910834596212
19.69919662023905
19.699273312794496
19.699337459077732
19.699388238893206
19.699424994023587
19.699447242987105
19.699454692193726
19.725451655628
19.72545827661422
19.725478066452254
19.725510807167463
19.7255561395929
19.725613568693124
19.7256824719359
19.725762107304107
19.72585162454018
19.725950074301643
19.726056420257592
19.726169549200886
19.726288280675586
19.72641137793181
19.72653755750422
19.726665498046888
19.72679385050526
19.72692124805315
19.727046316865266
19.72716768796166
19.727284010163892
19.727393965153315
19.727496282214577
19.72758975642923
19.72767326585374
19.727745790103018
19.72780642849054
19.727854416916234
19.72788914338648
19.727910160918213
19.727917197243055
19.74750257428161
19.747508902136524
19.747527816543506
19.747559111260273
19.747602446185635
19.747657352026856
19.74772323778189
19.74779939783805
19.74788502218506
19.74797920471275
19.748080954453982
19.748189205097365
19.748302824221465
19.74842062398612
19.74854137067611
19.748663793671167
19.74878659578915
19.74890846344509
19.74902807759259
19.7491441256153
19.749255314151494
19.749360383751892
19.74945812302711
19.749547385865565
19.74962710745782
19.74969632146587
19.749754176616833
19.749799952013863
19.74983307113065
19.74985311337993
19.74985982277609
19.76314706738358
19.76315318229863
19.763171460687996
19.76320170461131
19.763243587480183
19.763296658290898
19.763360348512013
19.763433978575062
19.76351676739032
19.76360784006591
19.76370623856174
19.76381093078307
19.763920819528998
19.764034752975657
19.764151534163926
19.76426993002509
19.76438868179745
19.764506515291103
19.76462215189634
19.76473432045745
19.76484176995871
19.764943283860944
19.76503769380187
19.7651238961099
19.765200867015302
19.765267678835134
19.76532351550267
19.765367686802136
19.76539964132763
19.76541897714948
19.76542544977576
19.77249040835059
19.772496394043685
19.772514286438735
19.772543892550406
19.7725848938638
19.77263685031911
19.77269920685796
19.77277129956563
19.77285236478379
19.772941546494835
19.773037906630766
19.773140433918428
19.773248052654605
19.77335963305675
19.77347400070504
19.773589945585606
19.773706232532124
19.77382161153352
19.773934828761774
19.774044638415322
19.774149815304632
19.774249168982372
19.774341557167435
19.77442590183369
19.774501203937003
19.77456655901967
19.774621172116593
19.774664371362984
19.774695620352468
19.774714528281464
19.774720857506104
19.775597523430893
19.775603465803936
19.775621228794545
19.775650621065218
19.775691326787282
19.77574290954496
19.775804818770336
19.775876395772244
19.77595688271685
19.776045429902684
19.776141105955674
19.776242906592046
19.77634976333551
19.77646055382244
19.77657411122676
19.776689233306495
19.776804692850437
19.776919247997007
19.777031653264903
19.777140671383293
19.777245085841006
19.777343714945737
19.777435425154685
19.77751914702107
19.77759388976051
19.777658756663634
19.77771295979675
19.777755833403813
19.777786846067322
19.77780561068195
19.777811891879132
