# vtk DataFile Version 2.0
Unstructured Grid Example
ASCII
DATASET UNSTRUCTURED_GRID

POINTS 961 float
0.400000004 0.01999999956 0
0.3866666556 0.01999999956 0
0.3733333348 0.01999999956 0
0.3600000144 0.01999999956 0
0.346666664 0.01999999956 0
0.3333333432 0.01999999956 0
0.3199999928 0.01999999956 0
0.3066666724 0.01999999956 0
0.293333322 0.01999999956 0
0.2800000012 0.01999999956 0
0.2666666804 0.01999999956 0
0.25333333 0.01999999956 0
0.2399999948 0.01999999956 0
0.226666674 0.01999999956 0
0.2133333384 0.01999999956 0
0.2000000028 0.01999999956 0
0.1866666676 0.01999999956 0
0.173333332 0.01999999956 0
0.1599999964 0.01999999956 0
0.1466666608 0.01999999956 0
0.1333333404 0.01999999956 0
0.1199999972 0.01999999956 0
0.1066666692 0.01999999956 0
0.0933333336 0.01999999956 0
0.0799999984 0.01999999956 0
0.06666667 0.01999999956 0
0.0533333348 0.01999999956 0
0.03999999912 0.01999999956 0
0.02666666732 0.01999999956 0
0.01333333364 0.01999999956 0
0.0 0.01999999956 0
0.400000004 0.00666666684 0
0.3866666556 0.00666666684 0
0.3733333348 0.00666666684 0
0.3600000144 0.00666666684 0
0.346666664 0.00666666684 0
0.3333333432 0.00666666684 0
0.3199999928 0.00666666684 0
0.3066666724 0.00666666684 0
0.293333322 0.00666666684 0
0.2800000012 0.00666666684 0
0.2666666804 0.00666666684 0
0.25333333 0.00666666684 0
0.2399999948 0.00666666684 0
0.226666674 0.00666666684 0
0.2133333384 0.00666666684 0
0.2000000028 0.00666666684 0
0.1866666676 0.00666666684 0
0.173333332 0.00666666684 0
0.1599999964 0.00666666684 0
0.1466666608 0.00666666684 0
0.1333333404 0.00666666684 0
0.1199999972 0.00666666684 0
0.1066666692 0.00666666684 0
0.0933333336 0.00666666684 0
0.0799999984 0.00666666684 0
0.06666667 0.00666666684 0
0.0533333348 0.00666666684 0
0.03999999912 0.00666666684 0
0.02666666732 0.00666666684 0
0.01333333364 0.00666666684 0
0.0 0.00666666684 0
0.400000004 -0.00666666684 0
0.3866666556 -0.00666666684 0
0.3733333348 -0.00666666684 0
0.3600000144 -0.00666666684 0
0.346666664 -0.00666666684 0
0.3333333432 -0.00666666684 0
0.3199999928 -0.00666666684 0
0.3066666724 -0.00666666684 0
0.293333322 -0.00666666684 0
0.2800000012 -0.00666666684 0
0.2666666804 -0.00666666684 0
0.25333333 -0.00666666684 0
0.2399999948 -0.00666666684 0
0.226666674 -0.00666666684 0
0.2133333384 -0.00666666684 0
0.2000000028 -0.00666666684 0
0.1866666676 -0.00666666684 0
0.173333332 -0.00666666684 0
0.1599999964 -0.00666666684 0
0.1466666608 -0.00666666684 0
0.1333333404 -0.00666666684 0
0.1199999972 -0.00666666684 0
0.1066666692 -0.00666666684 0
0.0933333336 -0.00666666684 0
0.0799999984 -0.00666666684 0
0.06666667 -0.00666666684 0
0.0533333348 -0.00666666684 0
0.03999999912 -0.00666666684 0
0.02666666732 -0.00666666684 0
0.01333333364 -0.00666666684 0
0.0 -0.00666666684 0
0.400000004 -0.01999999956 0
0.3866666556 -0.01999999956 0
0.3733333348 -0.01999999956 0
0.3600000144 -0.01999999956 0
0.346666664 -0.01999999956 0
0.3333333432 -0.01999999956 0
0.3199999928 -0.01999999956 0
0.3066666724 -0.01999999956 0
0.293333322 -0.01999999956 0
0.2800000012 -0.01999999956 0
0.2666666804 -0.01999999956 0
0.25333333 -0.01999999956 0
0.2399999948 -0.01999999956 0
0.226666674 -0.01999999956 0
0.2133333384 -0.01999999956 0
0.2000000028 -0.01999999956 0
0.1866666676 -0.01999999956 0
0.173333332 -0.01999999956 0
0.1599999964 -0.01999999956 0
0.1466666608 -0.01999999956 0
0.1333333404 -0.01999999956 0
0.1199999972 -0.01999999956 0
0.1066666692 -0.01999999956 0
0.0933333336 -0.01999999956 0
0.0799999984 -0.01999999956 0
0.06666667 -0.01999999956 0
0.0533333348 -0.01999999956 0
0.03999999912 -0.01999999956 0
0.02666666732 -0.01999999956 0
0.01333333364 -0.01999999956 0
0.0 -0.01999999956 0
0.400000004 -0.03333333508 0
0.3866666556 -0.03333333508 0
0.3733333348 -0.03333333508 0
0.3600000144 -0.03333333508 0
0.346666664 -0.03333333508 0
0.3333333432 -0.03333333508 0
0.3199999928 -0.03333333508 0
0.3066666724 -0.03333333508 0
0.293333322 -0.03333333508 0
0.2800000012 -0.03333333508 0
0.2666666804 -0.03333333508 0
0.25333333 -0.03333333508 0
0.2399999948 -0.03333333508 0
0.226666674 -0.03333333508 0
0.2133333384 -0.03333333508 0
0.2000000028 -0.03333333508 0
0.1866666676 -0.03333333508 0
0.173333332 -0.03333333508 0
0.1599999964 -0.03333333508 0
0.1466666608 -0.03333333508 0
0.1333333404 -0.03333333508 0
0.1199999972 -0.03333333508 0
0.1066666692 -0.03333333508 0
0.0933333336 -0.03333333508 0
0.0799999984 -0.03333333508 0
0.06666667 -0.03333333508 0
0.0533333348 -0.03333333508 0
0.03999999912 -0.03333333508 0
0.02666666732 -0.03333333508 0
0.01333333364 -0.03333333508 0
0.0 -0.03333333508 0
0.400000004 -0.0466666668 0
0.3866666556 -0.0466666668 0
0.3733333348 -0.0466666668 0
0.3600000144 -0.0466666668 0
0.346666664 -0.0466666668 0
0.3333333432 -0.0466666668 0
0.3199999928 -0.0466666668 0
0.3066666724 -0.0466666668 0
0.293333322 -0.0466666668 0
0.2800000012 -0.0466666668 0
0.2666666804 -0.0466666668 0
0.25333333 -0.0466666668 0
0.2399999948 -0.0466666668 0
0.226666674 -0.0466666668 0
0.2133333384 -0.0466666668 0
0.2000000028 -0.0466666668 0
0.1866666676 -0.0466666668 0
0.173333332 -0.0466666668 0
0.1599999964 -0.0466666668 0
0.1466666608 -0.0466666668 0
0.1333333404 -0.0466666668 0
0.1199999972 -0.0466666668 0
0.1066666692 -0.0466666668 0
0.0933333336 -0.0466666668 0
0.0799999984 -0.0466666668 0
0.06666667 -0.0466666668 0
0.0533333348 -0.0466666668 0
0.03999999912 -0.0466666668 0
0.02666666732 -0.0466666668 0
0.01333333364 -0.0466666668 0
0.0 -0.0466666668 0
0.400000004 -0.0599999988 0
0.3866666556 -0.0599999988 0
0.3733333348 -0.0599999988 0
0.3600000144 -0.0599999988 0
0.346666664 -0.0599999988 0
0.3333333432 -0.0599999988 0
0.3199999928 -0.0599999988 0
0.3066666724 -0.0599999988 0
0.293333322 -0.0599999988 0
0.2800000012 -0.0599999988 0
0.2666666804 -0.0599999988 0
0.25333333 -0.0599999988 0
0.2399999948 -0.0599999988 0
0.226666674 -0.0599999988 0
0.2133333384 -0.0599999988 0
0.2000000028 -0.0599999988 0
0.1866666676 -0.0599999988 0
0.173333332 -0.0599999988 0
0.1599999964 -0.0599999988 0
0.1466666608 -0.0599999988 0
0.1333333404 -0.0599999988 0
0.1199999972 -0.0599999988 0
0.1066666692 -0.0599999988 0
0.0933333336 -0.0599999988 0
0.0799999984 -0.0599999988 0
0.06666667 -0.0599999988 0
0.0533333348 -0.0599999988 0
0.03999999912 -0.0599999988 0
0.02666666732 -0.0599999988 0
0.01333333364 -0.0599999988 0
0.0 -0.0599999988 0
0.400000004 -0.0733333304 0
0.3866666556 -0.0733333304 0
0.3733333348 -0.0733333304 0
0.3600000144 -0.0733333304 0
0.346666664 -0.0733333304 0
0.3333333432 -0.0733333304 0
0.3199999928 -0.0733333304 0
0.3066666724 -0.0733333304 0
0.293333322 -0.0733333304 0
0.2800000012 -0.0733333304 0
0.2666666804 -0.0733333304 0
0.25333333 -0.0733333304 0
0.2399999948 -0.0733333304 0
0.226666674 -0.0733333304 0
0.2133333384 -0.0733333304 0
0.2000000028 -0.0733333304 0
0.1866666676 -0.0733333304 0
0.173333332 -0.0733333304 0
0.1599999964 -0.0733333304 0
0.1466666608 -0.0733333304 0
0.1333333404 -0.0733333304 0
0.1199999972 -0.0733333304 0
0.1066666692 -0.0733333304 0
0.0933333336 -0.0733333304 0
0.0799999984 -0.0733333304 0
0.06666667 -0.0733333304 0
0.0533333348 -0.0733333304 0
0.03999999912 -0.0733333304 0
0.02666666732 -0.0733333304 0
0.01333333364 -0.0733333304 0
0.0 -0.0733333304 0
0.400000004 -0.086666666 0
0.3866666556 -0.086666666 0
0.3733333348 -0.086666666 0
0.3600000144 -0.086666666 0
0.346666664 -0.086666666 0
0.3333333432 -0.086666666 0
0.3199999928 -0.086666666 0
0.3066666724 -0.086666666 0
0.293333322 -0.086666666 0
0.2800000012 -0.086666666 0
0.2666666804 -0.086666666 0
0.25333333 -0.086666666 0
0.2399999948 -0.086666666 0
0.226666674 -0.086666666 0
0.2133333384 -0.086666666 0
0.2000000028 -0.086666666 0
0.1866666676 -0.086666666 0
0.173333332 -0.086666666 0
0.1599999964 -0.086666666 0
0.1466666608 -0.086666666 0
0.1333333404 -0.086666666 0
0.1199999972 -0.086666666 0
0.1066666692 -0.086666666 0
0.0933333336 -0.086666666 0
0.0799999984 -0.086666666 0
0.06666667 -0.086666666 0
0.0533333348 -0.086666666 0
0.03999999912 -0.086666666 0
0.02666666732 -0.086666666 0
0.01333333364 -0.086666666 0
0.0 -0.086666666 0
0.400000004 -0.1000000016 0
0.3866666556 -0.1000000016 0
0.3733333348 -0.1000000016 0
0.3600000144 -0.1000000016 0
0.346666664 -0.1000000016 0
0.3333333432 -0.1000000016 0
0.3199999928 -0.1000000016 0
0.3066666724 -0.1000000016 0
0.293333322 -0.1000000016 0
0.2800000012 -0.1000000016 0
0.2666666804 -0.1000000016 0
0.25333333 -0.1000000016 0
0.2399999948 -0.1000000016 0
0.226666674 -0.1000000016 0
0.2133333384 -0.1000000016 0
0.2000000028 -0.1000000016 0
0.1866666676 -0.1000000016 0
0.173333332 -0.1000000016 0
0.1599999964 -0.1000000016 0
0.1466666608 -0.1000000016 0
0.1333333404 -0.1000000016 0
0.1199999972 -0.1000000016 0
0.1066666692 -0.1000000016 0
0.0933333336 -0.1000000016 0
0.0799999984 -0.1000000016 0
0.06666667 -0.1000000016 0
0.0533333348 -0.1000000016 0
0.03999999912 -0.1000000016 0
0.02666666732 -0.1000000016 0
0.01333333364 -0.1000000016 0
0.0 -0.1000000016 0
0.400000004 -0.1133333372 0
0.3866666556 -0.1133333372 0
0.3733333348 -0.1133333372 0
0.3600000144 -0.1133333372 0
0.346666664 -0.1133333372 0
0.3333333432 -0.1133333372 0
0.3199999928 -0.1133333372 0
0.3066666724 -0.1133333372 0
0.293333322 -0.1133333372 0
0.2800000012 -0.1133333372 0
0.2666666804 -0.1133333372 0
0.25333333 -0.1133333372 0
0.2399999948 -0.1133333372 0
0.226666674 -0.1133333372 0
0.2133333384 -0.1133333372 0
0.2000000028 -0.1133333372 0
0.1866666676 -0.1133333372 0
0.173333332 -0.1133333372 0
0.1599999964 -0.1133333372 0
0.1466666608 -0.1133333372 0
0.1333333404 -0.1133333372 0
0.1199999972 -0.1133333372 0
0.1066666692 -0.1133333372 0
0.0933333336 -0.1133333372 0
0.0799999984 -0.1133333372 0
0.06666667 -0.1133333372 0
0.0533333348 -0.1133333372 0
0.03999999912 -0.1133333372 0
0.02666666732 -0.1133333372 0
0.01333333364 -0.1133333372 0
0.0 -0.1133333372 0
0.400000004 -0.1266666652 0
0.3866666556 -0.1266666652 0
0.3733333348 -0.1266666652 0
[...]
POINT_DATA 961
SCALARS Temp float 1
LOOKUP_TABLE default
0.731253093763674
0.7604595836152899
0.7814192437202512
0.7966590194880443
0.8078253795625483
0.8160473441792832
0.8221287051925606
0.8266480008377496
0.8300263143102611
0.8325721777906583
0.8345143409040457
0.8360244924682191
0.8372338383674112
0.8382460035438412
0.8391466586899808
0.8400111569525779
0.8409115270091786
0.8419229015227505
0.8431302705932334
0.8446362078339147
0.8465702795832475
0.8491014325897577
0.8524537845990721
0.8569290600763834
0.8629367105899155
0.871036660982463
0.8820002101486094
0.8968991275798894
0.9172413652140924
0.9452153978413794
0.9842926992340492
0.7718236462408231
0.8004626702291284
0.821197209722574
0.836353567267839
0.8474815860533371
0.8556878131682093
0.8617644354166194
0.8662844677574055
0.8696661072458234
0.8722163842834647
0.8741632774109076
0.8756781126720048
0.8768919675455618
0.8779084641379399
0.8788133400923008
0.8796820565839509
0.8805867652997768
0.8816027212618167
0.8828150178103682
0.8843262855670468
0.8862660586870595
0.8888030803270337
0.8921609689188524
0.8966404033866577
0.9026488109669479
0.9107422602151638
0.9216846400903809
0.9365324032865626
0.9567616116806489
0.984450433885493
1.0226089307809447
2.6712989498411277
2.675553751917909
2.687412008194211
2.6983489415705244
2.7073929717751675
2.714588737872718
2.720222910207476
2.7246049617690655
2.7280093970713857
2.730664044652743
2.7327532261674126
2.7344251401660187
2.7357998645028347
2.736976840927931
2.7380415359652597
2.7390713967461418
2.74014139010685
2.741329434975332
2.742722021574726
2.7444203666293165
2.7465474482686396
2.7492561535611753
2.7527386792016557
2.7572368158729597
2.763051510516573
2.770546803753924
2.78013404473255
2.7921943915275445
2.8067865643225627
2.8226042115218393
2.828282914013276
4.54710167281683
4.549423608864015
4.555122549136073
4.562243623140885
4.568995540097472
4.5748493805149995
4.57971919504845
4.583686901309892
4.586887983500812
4.58946522886305
4.59155108926853
4.593262410857614
4.594700657631336
4.595954498950067
4.597103315592346
4.598221044588978
4.599380160074297
4.600655731541942
4.60212959209133
4.603894627746625
4.60605909648879
4.6087506761004695
4.612119354494981
4.61633735828173
4.62159181811889
4.6280608949318065
4.635851903366902
4.64484839638594
4.654342241176272
4.661942322384045
4.665038831352701
6.417363908341767
6.418599635378049
6.4219393036551375
6.4264611560569245
6.431276644380605
6.435801419781351
6.439794964960284
6.443200480803552
6.446050686927405
6.448416779025598
6.450382681247844
6.452032798548368
6.453447016298936
6.4546995501214
6.4558597877939725
6.4569941750837065
6.458168639876515
6.459451242485413
6.460914850493372
6.462639601992
6.464714774919695
6.467239383516446
6.470320152908078
6.474064514273511
6.478563975314033
6.483859451671676
6.489873021673309
6.496281866083099
6.5023047926997
6.506754973350509
6.508401915645434
8.284282703373922
8.285035370491963
8.287117998151833
8.290099787393421
8.293482140938707
8.296867320249232
8.300012443040156
8.302807909114957
8.305228378140345
8.307295771081991
8.309055833590659
8.310564518943737
8.311880761252246
8.313063186408542
8.314169141620141
8.31525507417392
8.316377650379298
8.317595174847495
8.318968971630976
8.320564350352413
8.322450634289952
8.324699454664401
8.327379956899822
8.3305488786853
8.334232130687486
8.338393257467681
8.342883956041328
8.347378456328764
8.351344751569581
8.354116602641948
8.355118611414749
10.148950463083684
10.149429850035856
10.150781371951897
10.152779319095943
10.155141537527127
10.15761031787362
10.159998756471335
10.162197290504555
10.164158593837968
10.165877251855333
10.167373243469816
10.168680502989076
10.16983982014934
10.17089488937544
10.171890438557593
10.172871670881964
10.173884462202492
10.174975862288303
10.176194523161337
10.17759064245298
10.179214895454383
10.18111564024041
10.18333333252021
10.185890833870957
10.188777948098464
10.19192916802324
10.195196473633224
10.198329013860187
10.20098183287123
10.202777657468324
10.203414850684176
12.011848687108063
12.012157480972359
12.013037694649238
12.014366142674994
12.015980117905977
12.017718830016692
12.01945254699819
12.02109396922358
12.022595827580885
12.02394197229008
12.025137623588355
12.026201352657672
12.027159417756636
12.028042194071148
12.02888215934913
12.029712940491898
12.030568998211734
12.031485567617533
12.032498517694677
12.033643764880441
12.034955803843818
12.036464821607785
12.038191709293198
12.040140348140323
12.042286759928047
12.044565940501743
12.046859908956515
12.048994380830152
12.050753939648965
12.051920860678184
12.052330408010757
13.873216467430101
13.87340708202574
13.87395441333807
13.874791879216298
13.875828499526566
13.876969717893862
13.878134067891063
13.879261921289968
13.88031687946941
13.8812824929285
13.882157298816809
13.882950015967353
13.88367575884748
13.884353420248466
13.885004032335027
13.885649844435406
13.88631384960619
13.887019490510614
13.887790297201288
13.888649190735032
13.889617150589661
13.890710913178417
13.8919393371431
13.893298253367556
13.894763955771595
13.896286474833698
13.897785160927661
13.899150458165701
13.90025557102558
13.900978658934836
13.901230618838166
15.733170251562935
15.733269973059373
15.73355791028117
15.73400323852408
15.734562923287342
15.735190794467679
15.735845353086976
15.736494502669093
15.73711705285458
15.737701846342048
15.738245749542617
15.738751416448846
15.739225363658072
15.739676539603135
15.740115354733662
15.740553071008787
15.741001424654172
15.741472340641057
15.741977606188566
15.742528360866862
15.743134248642377
15.743802077660284
15.744533843302326
15.745324115605266
15.74615700777648
15.747003441217254
15.747819962549743
15.748550705749611
15.749133702475614
15.749511274739412
15.749642141975642
17.591765802687668
17.591786964667435
17.591849162287524
17.5919487670697
17.59208044325875
17.59223798604113
17.592415149331593
17.592606286749234
17.592806743197574
17.59301299806527
17.593222636069832
17.59343420868654
17.59364705072712
17.593861093404907
17.594076687246186
17.594294440686923
17.594515073295227
17.59473927156751
17.594967537745717
17.59520002070735
17.595436320061975
17.59567526251095
17.595914653701413
17.596151040321345
17.59637952595304
17.596593728092074
17.596785972862286
17.596947811426254
17.597070878163922
17.597147991417515
17.597174272840917
17.695463967498803
17.69548146905873
17.69553309997623
17.69561637686879
17.69572758138284
17.695862272632134
17.69601582157793
17.69618385908811
17.696362589828922
17.696548951072685
17.696740651009932
17.696936114693056
17.697134378452294
17.69733496378332
17.697537743083807
17.697742806146053
17.697950331323312
17.69816045527597
17.69837313766232
17.698588016093886
17.698804248985144
17.69902035124536
17.699234030294985
17.699442054239896
17.69964018275455
17.699823216530937
17.699985213867524
17.700119905328307
17.700221294853073
17.70028437005846
17.70030578704487
17.799054304228594
17.799069069603302
17.799112754260438
17.799183607523588
17.79927896960679
17.7993955943049
17.799530000236686
17.79967878297781
17.799838855417303
17.80000759149823
17.800182888974184
17.80036316040259
17.800547276997644
17.800734486869906
17.80092431676622
17.80111646629553
17.801310700824658
17.801506740697587
17.801704147093616
17.801902203981193
17.802099797584077
17.802295300698844
17.802486469550836
17.80267037913534
17.80284341569613
17.803001360538516
17.80313958724129
17.8032533797057
17.803338352195073
17.803390916153745
17.803408712006846
17.902541998063818
17.902554668819718
17.902592240876263
17.90265344620159
17.902736334779267
17.902838483160437
17.902957229489257
17.90308989162685
17.90323394736007
17.903387153965514
17.903547614536134
17.903713790760044
17.903884476630523
17.904058747499352
17.904235890206753
17.90441532209297
17.904596505687582
17.904778858791097
17.904961662546143
17.905143969316743
17.905324513611717
17.905501633737302
17.90567321039184
17.90583664223455
17.905988868258895
17.906126457540328
17.906245774607026
17.906343218370978
17.90641551693389
17.906460040035913
17.906475078713306
18.005930934841622
18.00594196978973
18.005974749209145
18.00602833086024
18.006101250661576
18.006191660589607
18.006297488649682
18.006416592274007
18.006546892260253
18.00668646811173
18.006833618902178
18.006986884963826
18.007145038859885
18.00730705519581
18.007472062278833
18.00763928193058
18.007807963981904
18.007977316094664
18.008146432569124
18.00831422504357
18.008479358889975
18.00864020233134
18.008794792618218
18.00894083441544
18.009075734364153
18.009196684234
18.00930079411534
18.009385270421287
18.009447624421515
18.009485885072927
18.00949878451393
18.109224045646464
18.109233782050545
18.109262744489406
18.109310215238555
18.109375068957664
18.10945586574116
18.109550961787832
18.109658618149677
18.109777100114567
18.10990475156143
18.110040047305166
18.110181617017375
18.11032824574303
18.110478857424262
18.110632482494463
18.110788214447236
18.110945161253717
18.111102392521335
18.11125888632476
18.111413478892135
18.111564820819268
18.11171134579952
18.111851254500298
18.111982525054945
18.11210295051301
18.11221021093824
18.112301978518282
18.112376049990193
18.112430495581286
18.112463806429716
18.112475020291264
18.209111334889297
18.209120022180763
18.209145892261592
18.209188385097427
18.209246615545588
18.209319437289853
18.209405520594213
18.20950343008678
18.209611698700513
18.20972888502268
18.209853616858528
18.20998461421012
18.210120694779853
18.210260766438054
18.210403806428566
18.21054883105778
18.210694860969944
18.210840882786382
18.21098581085803
18.211128452136318
18.21126747737056
18.211401403538783
18.21152858878689
18.211647248690582
18.21175549208736
18.211851381490554
18.211933015252825
18.211998626352646
18.212046689905144
18.212076026904143
18.212085891082886
18.302258904537272
18.302266729534615
18.30229005188178
18.302328424282294
18.302381134719898
18.302447251113147
18.30252567675861
18.302615206493627
18.30271458202459
18.302822535979463
18.302937827594114
18.303059263461044
18.30318570541671
18.30331606878901
18.303449309974404
18.30358440618601
18.30372033172615
18.303856031285438
18.30399039361585
18.304122228189264
18.304250247475903
18.304373058773926
18.304489165869818
18.304596987468802
18.304694889521166
18.30478123496289
18.304854447760007
18.304913086997125
18.3049559253494
18.304982023190462
18.304990789685643
18.388634411673756
18.38864152038046
18.388662722167137
18.38869765155006
18.388745723033935
18.388806162784665
18.388878048753664
18.388960351647157
18.389051976679177
18.389151797450644
18.389258685037348
18.389371526188445
18.389489232166596
18.389610740702345
18.389735009559455
18.389861003868077
18.38998768091344
18.39011397256254
18.39023876819991
18.39036090032375
18.39047913487193
18.39059216939216
18.39069863864381
18.390797133252576
18.39088622801518
18.39096452254846
18.391030691306376
18.39108353956562
18.391122061380695
18.391145493303934
18.391153358079617
18.468208035551775
18.46821454453012
18.468233967892843
18.468266000333475
18.46831014999574
18.46836576128028
18.468432044331426
18.46850810526488
18.46859297802718
18.468685650595887
18.468785088751865
18.46889025186156
18.469000101919594
18.469113607860276
18.469229743376992
18.469347479896896
18.469465777834177
18.469583576002485
18.469699781589235
18.46981326239674
18.469922842919622
18.47002730671852
18.470125404214976
18.470215870599446
18.470297450264475
18.470368930003847
18.470429178293692
18.470477188000803
18.47051211972736
18.470533341328128
18.470540459671493
18.540952408247993
18.540958412511003
18.540976337142475
18.541005921637613
18.54104674424086
18.541098238624247
18.541159715915356
18.54123038728978
18.541309388617265
18.541395800916426
18.541488669946716
18.541587019889445
18.54168986222708
18.541796201535362
18.541905036303675
18.54201535605515
18.54212613742447
18.542236338816867
18.542344895630862
18.542450717355575
18.542552687696755
18.54264966967936
18.542740514557607
18.54282407855934
18.542899243881777
18.54296494592711
18.54302020442171
18.54306415636788
18.543096088907976
18.54311546883782
18.543121966072203
18.60684256622441
18.60684814480625
18.606864803963283
18.606892316897913
18.606930314860683
18.606978299550768
18.60703565987147
18.607101689070358
18.607175604121416
18.60725656190684
18.6073436755723
18.60743602646609
18.607532672699726
18.607632655852356
18.6077350038918
18.607838731305684
18.607942838725865
18.608046311463248
18.608148118579273
18.608247213476467
18.60834253682968
18.608433023413674
18.60851761147901
18.608595258220507
18.608664957856085
18.608725764159836
18.60877681540058
18.608817360108127
18.60884678236964
18.6088646242301
18.608870603323947
18.665856308134938
18.66586152808525
18.665877120106554
18.665902882977267
18.66593848835157
18.665983490149973
18.6660373375637
18.666099388287623
18.66616892405815
18.66624516367085
18.66632727685707
18.6664143948211
18.666505618437995
18.66660002550307
18.6666966751092
18.66679460994086
18.66689285846852
18.666990436303735
18.66708634804977
18.66717959036606
18.667269156810463
18.6673540457173
18.667433269662354
18.66750586970187
18.667570931046487
18.66762760192421
18.667675113851622
18.667712802097164
18.66774012548416
18.66775668369376
18.667762230755564
18.717973424894968
18.717978344196563
18.717993040941906
18.71801733342583
18.718050924261185
18.71809340764051
18.718144279659505
18.71820294874436
18.71826874838193
18.718340947804194
18.71841876398244
18.718501371058867
18.71858790819344
18.718677487122882
18.71876919753611
18.718862110903252
18.71895528450656
18.71904776481803
18.719138591326278
18.719226801325753
18.719311436035767
18.719391549083728
18.719466215854133
18.719534546621446
18.71959570028102
18.71964890037223
18.719693451834413
18.719728757553273
18.719754334161397
18.719769825668152
18.71977501398968
18.763176650249044
18.7631813199784
18.76319527309547
18.763218342810166
18.763250255483264
18.763290636377896
18.76333901806408
18.763394848831577
18.763457503373758
18.76352629175965
18.763600470010644
18.763679248674258
18.763761800357685
18.763847267447996
18.7639347681616
18.764023401449048
18.764112252318867
18.76420039664404
18.76428690637284
18.764370855499845
18.764451327018822
18.764527421725226
18.76459826735098
18.764663030746135
18.764720930066975
18.764771248620658
18.764813348985196
18.76484668666652
18.764870822980114
18.764885436027342
18.76489032910098
18.8014507048968
18.801455170863715
18.801468516557474
18.80149058653265
18.80152112527202
18.80155978186921
18.801606117062903
18.801659610209818
18.80171966848474
18.8017856346067
18.801856796358948
18.801932394508412
18.80201163007385
18.802093672116808
18.802177664238478
18.802262730226733
18.802347980275485
18.80243251678411
18.802515440520647
18.802595857387395
18.80267288590384
18.802745666151594
18.80281336866374
18.802875205818065
18.80293044282206
18.802978409906437
18.803018514484208
18.803050252688266
18.803073220132216
18.803087120973785
18.803091774797643
18.832783011113403
18.83278731512579
18.83280017784798
18.832821452336624
18.832850896693934
18.83288817800043
18.83293287838102
18.832984500960016
18.833042477999705
18.833106177732276
18.833174913106358
18.833247949217824
18.83332451036353
18.833403787851164
18.833484946786445
18.83356713222245
18.833649475986416
18.833731103155134
18.833811138859787
18.833888715573625
18.833962980920735
18.834033106661913
18.834098297348085
18.834157801084356
18.834210919599915
18.83425701921325
18.834295541555512
18.834326013574085
18.834348056770263
18.83436139489809
18.83436585976587
18.857163284491705
18.857167465361933
18.857179960753847
18.857200629893562
18.857229240788588
18.857265473647246
18.857308926277582
18.85735911934112
18.857415503752456
18.857477466888
18.857544340783683
18.85761540921386
18.857689914580703
18.85776706571756
18.857846044858416
18.857926014117197
18.858006122714375
18.858085513898505
18.85816333217037
18.858238730902983
18.858310880342607
18.85837897658427
18.858442250024183
18.858499975645884
18.85855148242076
18.8585961633901
18.85863348536931
18.85866299787243
18.858684341285425
18.858697253616167
18.85870157554718
18.87458341639078
18.874587510760044
18.87459974806997
18.874619991732175
18.87464801648584
18.874683511484893
18.87472608526262
18.87477527052974
18.874830531089074
18.874891267635782
18.874956825589543
18.875026501936816
18.87509955200461
18.8751751972485
18.87525263233075
18.875331031804528
18.8754095575892
18.87548736617031
18.87556361608284
18.8756374757313
18.87570813149779
18.8757747966896
18.87583671983974
18.875893194658943
18.875943568980084
18.875987254246343
18.87602373453668
18.876052574776843
18.87607342821204
18.876086042534954
18.876090264449047
18.885037790279654
18.885041833316293
18.885053917451877
18.88507390852524
18.885101585183886
18.885136641784786
18.88517869311451
18.885227278930667
18.88528187060239
18.885341876678922
18.885406650513183
18.88547549696746
18.885547679118524
18.885622426032675
18.885698939900653
18.88577640283313
18.88585398447102
18.88593084933697
18.886006164458728
18.8860791072951
18.88614887389652
18.886214687828357
18.886275808377498
18.88633154030681
18.886381242534444
18.88642433728004
18.88646031870189
18.886488760701504
18.886509323998652
18.88652176190718
18.88652592462179
18.888522949329538
18.888526975348576
18.888539008701194
18.888558916021704
18.88858647723924
18.88862138841855
18.888663266401114
18.888711653263943
18.888766022871124
18.888825786367597
18.888890299734843
18.88895887045181
18.88903076417749
18.88910521252089
18.889181420193577
18.889258571840337
18.889335839692137
18.889412390965763
18.889487395531166
18.889560033870538
18.88962950525454
18.88969503665615
18.889755890925716
18.889811376479845
18.889860855893822
18.889903754936306
18.88993957107995
18.889967881174105
18.889988348390936
18.89000072788723
18.8900048710018
