# vtk DataFile Version 2.0
Unstructured Grid Example
ASCII
DATASET UNSTRUCTURED_GRID

POINTS 961 float
0.400000004 0.01999999956 0
0.3866666556 0.01999999956 0
0.3733333348 0.01999999956 0
0.3600000144 0.01999999956 0
0.346666664 0.01999999956 0
0.3333333432 0.01999999956 0
0.3199999928 0.01999999956 0
0.3066666724 0.01999999956 0
0.293333322 0.01999999956 0
0.2800000012 0.01999999956 0
0.2666666804 0.01999999956 0
0.25333333 0.01999999956 0
0.2399999948 0.01999999956 0
0.226666674 0.01999999956 0
0.2133333384 0.01999999956 0
0.2000000028 0.01999999956 0
0.1866666676 0.01999999956 0
0.173333332 0.01999999956 0
0.1599999964 0.01999999956 0
0.1466666608 0.01999999956 0
0.1333333404 0.01999999956 0
0.1199999972 0.01999999956 0
0.1066666692 0.01999999956 0
0.0933333336 0.01999999956 0
0.0799999984 0.01999999956 0
0.06666667 0.01999999956 0
0.0533333348 0.01999999956 0
0.03999999912 0.01999999956 0
0.02666666732 0.01999999956 0
0.01333333364 0.01999999956 0
0.0 0.01999999956 0
0.400000004 0.00666666684 0
0.3866666556 0.00666666684 0
0.3733333348 0.00666666684 0
0.3600000144 0.00666666684 0
0.346666664 0.00666666684 0
0.3333333432 0.00666666684 0
0.3199999928 0.00666666684 0
0.3066666724 0.00666666684 0
0.293333322 0.00666666684 0
0.2800000012 0.00666666684 0
0.2666666804 0.00666666684 0
0.25333333 0.00666666684 0
0.2399999948 0.00666666684 0
0.226666674 0.00666666684 0
0.2133333384 0.00666666684 0
0.2000000028 0.00666666684 0
0.1866666676 0.00666666684 0
0.173333332 0.00666666684 0
0.1599999964 0.00666666684 0
0.1466666608 0.00666666684 0
0.1333333404 0.00666666684 0
0.1199999972 0.00666666684 0
0.1066666692 0.00666666684 0
0.0933333336 0.00666666684 0
0.0799999984 0.00666666684 0
0.06666667 0.00666666684 0
0.0533333348 0.00666666684 0
0.03999999912 0.00666666684 0
0.02666666732 0.00666666684 0
0.01333333364 0.00666666684 0
0.0 0.00666666684 0
0.400000004 -0.00666666684 0
0.3866666556 -0.00666666684 0
0.3733333348 -0.00666666684 0
0.3600000144 -0.00666666684 0
0.346666664 -0.00666666684 0
0.3333333432 -0.00666666684 0
0.3199999928 -0.00666666684 0
0.3066666724 -0.00666666684 0
0.293333322 -0.00666666684 0
0.2800000012 -0.00666666684 0
0.2666666804 -0.00666666684 0
0.25333333 -0.00666666684 0
0.2399999948 -0.00666666684 0
0.226666674 -0.00666666684 0
0.2133333384 -0.00666666684 0
0.2000000028 -0.00666666684 0
0.1866666676 -0.00666666684 0
0.173333332 -0.00666666684 0
0.1599999964 -0.00666666684 0
0.1466666608 -0.00666666684 0
0.1333333404 -0.00666666684 0
0.1199999972 -0.00666666684 0
0.1066666692 -0.00666666684 0
0.0933333336 -0.00666666684 0
0.0799999984 -0.00666666684 0
0.06666667 -0.00666666684 0
0.0533333348 -0.00666666684 0
0.03999999912 -0.00666666684 0
0.02666666732 -0.00666666684 0
0.01333333364 -0.00666666684 0
0.0 -0.00666666684 0
0.400000004 -0.01999999956 0
0.3866666556 -0.01999999956 0
0.3733333348 -0.01999999956 0
0.3600000144 -0.01999999956 0
0.346666664 -0.01999999956 0
0.3333333432 -0.01999999956 0
0.3199999928 -0.01999999956 0
0.3066666724 -0.01999999956 0
0.293333322 -0.01999999956 0
0.2800000012 -0.01999999956 0
0.2666666804 -0.01999999956 0
0.25333333 -0.01999999956 0
0.2399999948 -0.01999999956 0
0.226666674 -0.01999999956 0
0.2133333384 -0.01999999956 0
0.2000000028 -0.01999999956 0
0.1866666676 -0.01999999956 0
0.173333332 -0.01999999956 0
0.1599999964 -0.01999999956 0
0.1466666608 -0.01999999956 0
0.1333333404 -0.01999999956 0
0.1199999972 -0.01999999956 0
0.1066666692 -0.01999999956 0
0.0933333336 -0.01999999956 0
0.0799999984 -0.01999999956 0
0.06666667 -0.01999999956 0
0.0533333348 -0.01999999956 0
0.03999999912 -0.01999999956 0
0.02666666732 -0.01999999956 0
0.01333333364 -0.01999999956 0
0.0 -0.01999999956 0
0.400000004 -0.03333333508 0
0.3866666556 -0.03333333508 0
0.3733333348 -0.03333333508 0
0.3600000144 -0.03333333508 0
0.346666664 -0.03333333508 0
0.3333333432 -0.03333333508 0
0.3199999928 -0.03333333508 0
0.3066666724 -0.03333333508 0
0.293333322 -0.03333333508 0
0.2800000012 -0.03333333508 0
0.2666666804 -0.03333333508 0
0.25333333 -0.03333333508 0
0.2399999948 -0.03333333508 0
0.226666674 -0.03333333508 0
0.2133333384 -0.03333333508 0
0.2000000028 -0.03333333508 0
0.1866666676 -0.03333333508 0
0.173333332 -0.03333333508 0
0.1599999964 -0.03333333508 0
0.1466666608 -0.03333333508 0
0.1333333404 -0.03333333508 0
0.1199999972 -0.03333333508 0
0.1066666692 -0.03333333508 0
0.0933333336 -0.03333333508 0
0.0799999984 -0.03333333508 0
0.06666667 -0.03333333508 0
0.0533333348 -0.03333333508 0
0.03999999912 -0.03333333508 0
0.02666666732 -0.03333333508 0
0.01333333364 -0.03333333508 0
0.0 -0.03333333508 0
0.400000004 -0.0466666668 0
0.3866666556 -0.0466666668 0
0.3733333348 -0.0466666668 0
0.3600000144 -0.0466666668 0
0.346666664 -0.0466666668 0
0.3333333432 -0.0466666668 0
0.3199999928 -0.0466666668 0
0.3066666724 -0.0466666668 0
0.293333322 -0.0466666668 0
0.2800000012 -0.0466666668 0
0.2666666804 -0.0466666668 0
0.25333333 -0.0466666668 0
0.2399999948 -0.0466666668 0
0.226666674 -0.0466666668 0
0.2133333384 -0.0466666668 0
0.2000000028 -0.0466666668 0
0.1866666676 -0.0466666668 0
0.173333332 -0.0466666668 0
0.1599999964 -0.0466666668 0
0.1466666608 -0.0466666668 0
0.1333333404 -0.0466666668 0
0.1199999972 -0.0466666668 0
0.1066666692 -0.0466666668 0
0.0933333336 -0.0466666668 0
0.0799999984 -0.0466666668 0
0.06666667 -0.0466666668 0
0.0533333348 -0.0466666668 0
0.03999999912 -0.0466666668 0
0.02666666732 -0.0466666668 0
0.01333333364 -0.0466666668 0
0.0 -0.0466666668 0
0.400000004 -0.0599999988 0
0.3866666556 -0.0599999988 0
0.3733333348 -0.0599999988 0
0.3600000144 -0.0599999988 0
0.346666664 -0.0599999988 0
0.3333333432 -0.0599999988 0
0.3199999928 -0.0599999988 0
0.3066666724 -0.0599999988 0
0.293333322 -0.0599999988 0
0.2800000012 -0.0599999988 0
0.2666666804 -0.0599999988 0
0.25333333 -0.0599999988 0
0.2399999948 -0.0599999988 0
0.226666674 -0.0599999988 0
0.2133333384 -0.0599999988 0
0.2000000028 -0.0599999988 0
0.1866666676 -0.0599999988 0
0.173333332 -0.0599999988 0
0.1599999964 -0.0599999988 0
0.1466666608 -0.0599999988 0
0.1333333404 -0.0599999988 0
0.1199999972 -0.0599999988 0
0.1066666692 -0.0599999988 0
0.0933333336 -0.0599999988 0
0.0799999984 -0.0599999988 0
0.06666667 -0.0599999988 0
0.0533333348 -0.0599999988 0
0.03999999912 -0.0599999988 0
0.02666666732 -0.0599999988 0
0.01333333364 -0.0599999988 0
0.0 -0.0599999988 0
0.400000004 -0.0733333304 0
0.3866666556 -0.0733333304 0
0.3733333348 -0.0733333304 0
0.3600000144 -0.0733333304 0
0.346666664 -0.0733333304 0
0.3333333432 -0.0733333304 0
0.3199999928 -0.0733333304 0
0.3066666724 -0.0733333304 0
0.293333322 -0.0733333304 0
0.2800000012 -0.0733333304 0
0.2666666804 -0.0733333304 0
0.25333333 -0.0733333304 0
0.2399999948 -0.0733333304 0
0.226666674 -0.0733333304 0
0.2133333384 -0.0733333304 0
0.2000000028 -0.0733333304 0
0.1866666676 -0.0733333304 0
0.173333332 -0.0733333304 0
0.1599999964 -0.0733333304 0
0.1466666608 -0.0733333304 0
0.1333333404 -0.0733333304 0
0.1199999972 -0.0733333304 0
0.1066666692 -0.0733333304 0
0.0933333336 -0.0733333304 0
0.0799999984 -0.0733333304 0
0.06666667 -0.0733333304 0
0.0533333348 -0.0733333304 0
0.03999999912 -0.0733333304 0
0.02666666732 -0.0733333304 0
0.01333333364 -0.0733333304 0
0.0 -0.0733333304 0
0.400000004 -0.086666666 0
0.3866666556 -0.086666666 0
0.3733333348 -0.086666666 0
0.3600000144 -0.086666666 0
0.346666664 -0.086666666 0
0.3333333432 -0.086666666 0
0.3199999928 -0.086666666 0
0.3066666724 -0.086666666 0
0.293333322 -0.086666666 0
0.2800000012 -0.086666666 0
0.2666666804 -0.086666666 0
0.25333333 -0.086666666 0
0.2399999948 -0.086666666 0
0.226666674 -0.086666666 0
0.2133333384 -0.086666666 0
0.2000000028 -0.086666666 0
0.1866666676 -0.086666666 0
0.173333332 -0.086666666 0
0.1599999964 -0.086666666 0
0.1466666608 -0.086666666 0
0.1333333404 -0.086666666 0
0.1199999972 -0.086666666 0
0.1066666692 -0.086666666 0
0.0933333336 -0.086666666 0
0.0799999984 -0.086666666 0
0.06666667 -0.086666666 0
0.0533333348 -0.086666666 0
0.03999999912 -0.086666666 0
0.02666666732 -0.086666666 0
0.01333333364 -0.086666666 0
0.0 -0.086666666 0
0.400000004 -0.1000000016 0
0.3866666556 -0.1000000016 0
0.3733333348 -0.1000000016 0
0.3600000144 -0.1000000016 0
0.346666664 -0.1000000016 0
0.3333333432 -0.1000000016 0
0.3199999928 -0.1000000016 0
0.3066666724 -0.1000000016 0
0.293333322 -0.1000000016 0
0.2800000012 -0.1000000016 0
0.2666666804 -0.1000000016 0
0.25333333 -0.1000000016 0
0.2399999948 -0.1000000016 0
0.226666674 -0.1000000016 0
0.2133333384 -0.1000000016 0
0.2000000028 -0.1000000016 0
0.1866666676 -0.1000000016 0
0.173333332 -0.1000000016 0
0.1599999964 -0.1000000016 0
0.1466666608 -0.1000000016 0
0.1333333404 -0.1000000016 0
0.1199999972 -0.1000000016 0
0.1066666692 -0.1000000016 0
0.0933333336 -0.1000000016 0
0.0799999984 -0.1000000016 0
0.06666667 -0.1000000016 0
0.0533333348 -0.1000000016 0
0.03999999912 -0.1000000016 0
0.02666666732 -0.1000000016 0
0.01333333364 -0.1000000016 0
0.0 -0.1000000016 0
0.400000004 -0.1133333372 0
0.3866666556 -0.1133333372 0
0.3733333348 -0.1133333372 0
0.3600000144 -0.1133333372 0
0.346666664 -0.1133333372 0
0.3333333432 -0.1133333372 0
0.3199999928 -0.1133333372 0
0.3066666724 -0.1133333372 0
0.293333322 -0.1133333372 0
0.2800000012 -0.1133333372 0
0.2666666804 -0.1133333372 0
0.25333333 -0.1133333372 0
0.2399999948 -0.1133333372 0
0.226666674 -0.1133333372 0
0.2133333384 -0.1133333372 0
0.2000000028 -0.1133333372 0
0.1866666676 -0.1133333372 0
0.173333332 -0.1133333372 0
0.1599999964 -0.1133333372 0
0.1466666608 -0.1133333372 0
0.1333333404 -0.1133333372 0
0.1199999972 -0.1133333372 0
0.1066666692 -0.1133333372 0
0.0933333336 -0.1133333372 0
0.0799999984 -0.1133333372 0
0.06666667 -0.1133333372 0
0.0533333348 -0.1133333372 0
0.03999999912 -0.1133333372 0
0.02666666732 -0.1133333372 0
0.01333333364 -0.1133333372 0
0.0 -0.1133333372 0
0.400000004 -0.1266666652 0
0.3866666556 -0.1266666652 0
0.3733333348 -0.1266666652 0
[...]
POINT_DATA 961
SCALARS Temp float 1
LOOKUP_TABLE default
0.7161395926072894
0.744742428562229
0.7652688498905791
0.7801935809196583
0.7911290656095784
0.7991809926355526
0.8051365432692519
0.8095623002079824
0.8128706451189502
0.8153637347338485
0.8172655921332818
0.8187443589297465
0.819928530530964
0.8209195914719473
0.8218014431302261
0.8226478825733429
0.8235294510715628
0.8245197296539025
0.8257019529392086
0.8271765754858251
0.8290704864866306
0.8315491413732157
0.8348320259932845
0.839214628574155
0.8450979375259364
0.8530303040813126
0.863767084323898
0.878357894234532
0.8982795165595099
0.9256751910418566
0.9639446357411142
0.7558717887019698
0.7839188882984979
0.8042248405177761
0.8190678754435468
0.8299658084556484
0.8380023196033793
0.8439532250024799
0.848379698282013
0.8516912946806781
0.854188700257473
0.8560951830183852
0.8575785293777701
0.8587671090739355
0.8597624039501244
0.8606483810388571
0.8614989432933161
0.862384752541508
0.8633795097334973
0.86456655068498
0.8660463858733248
0.8679458730603821
0.8704302683784864
0.8737185687639258
0.8781052385928898
0.8839892838628497
0.8919152793036578
0.9026313243042007
0.917172034732125
0.9369829625793378
0.9640993215176539
1.0014689575615112
2.616096215741143
2.6202630452955145
2.631876113971693
2.642586837395573
2.651443720258791
2.6584904832250422
2.6640078758547627
2.668298979101492
2.6716326283066776
2.6742319477486967
2.676277454264801
2.6779142884310803
2.679260051560154
2.6804121355594432
2.6814542460908184
2.6824622352498357
2.6835095261090607
2.6846724327540317
2.686035663271807
2.687698347663373
2.689780927275717
2.692433133870619
2.6958431959663818
2.700247910601104
2.705942007975433
2.713282007568162
2.722670759453999
2.734481547047784
2.748771882066837
2.7642624249741092
2.769823695525256
4.4531375594376925
4.455411452197795
4.460992447233649
4.467966080276748
4.474578087224227
4.480310485538205
4.4850791081498365
4.488964186058917
4.492098410312301
4.494621624637372
4.496663551550912
4.49833863088711
4.4997462387117615
4.50097322125554
4.502097328417206
4.503190979034499
4.5043251593444085
4.505573397249181
4.507015844298233
4.508743476242891
4.510862322698688
4.513497431233407
4.516795697898095
4.520925797227722
4.526070999221214
4.532405789119024
4.540035270065815
4.548845408942684
4.558142718272153
4.56558551919337
4.568617959073733
6.2847532953276195
6.285963408726884
6.2892338329314
6.293661864821616
6.2983773256100095
6.302807950152217
6.306718199789956
6.310052458081221
6.312842778162368
6.315158894989743
6.317083009777783
6.3186977953956545
6.320081499227301
6.321306816640817
6.322441715357954
6.323551282170338
6.324700096807742
6.325954827313856
6.3273868494493914
6.329074658869435
6.331105701687615
6.333576958475398
6.336592960625879
6.340258930234153
6.344664494289171
6.34984973273851
6.355738344009436
6.362014190713051
6.3679122372073085
6.372270196051501
6.373883016296548
8.113095194669086
8.113832211150468
8.11587151272582
8.118791207728952
8.122103009603109
8.125417407955954
8.128496549847446
8.131233111373456
8.133602288479585
8.135625562978083
8.13734775017309
8.138823663105084
8.140111034974462
8.141267297882212
8.142348632238484
8.143410337514139
8.144507927849634
8.145698521799309
8.147042194724559
8.148602924760459
8.150448620141088
8.152649448571244
8.1552731424475
8.158375281880364
8.16198125607264
8.166055376121975
8.170452416385183
8.174853351331626
8.178737180507733
8.181451444054527
8.182432642852357
9.939233215319355
9.939702578027783
9.941025819244478
9.9429818982917
9.945294499470567
9.947711248874773
9.95004911715044
9.952200819414589
9.954120023071237
9.95580144258644
9.957264662691777
9.958542936471604
9.959676231945927
9.96070736274672
9.961680155337156
9.962638902146669
9.963628554604014
9.96469521377432
9.96588654959395
9.96725174515476
9.96884045059975
9.970700045792373
9.972870170438043
9.975373232461628
9.978199263878938
9.981284127445868
9.98448287698059
9.987549858998372
9.990147258400267
9.991905608328484
9.992529511838242
11.763639032676704
11.76394130533943
11.764802911198299
11.766103215515407
11.767682881754471
11.769384453501214
11.771080893484704
11.772686722403911
11.774155666483278
11.77547193028993
11.7766406486688
11.777680033181674
11.778615825059589
11.779477798549316
11.780297787897316
11.781108753363998
11.781944472084188
11.78283947957701
11.78382893182647
11.784948030680148
11.786230584713993
11.787706182723479
11.78939530834731
11.791301785287885
11.79340215180526
11.795632766209193
11.797878102888255
11.799967494075245
11.801689987546233
11.802832367576631
11.80323330871188
13.586546920858254
13.586733432830119
13.587268964718575
13.5880883159314
13.589102395682897
13.590218614275694
13.591357204650292
13.592459789659465
13.593490744471175
13.594433983677593
13.59528810109398
13.596061663829014
13.596769504197553
13.59743015615635
13.598064249889301
13.598693608322133
13.59934078309868
13.600028766177164
13.600780634737498
13.60161886883322
13.602564046010095
13.603632587048107
13.604833196099793
13.606161816838979
13.607595257553156
13.609084603451272
13.610550891058073
13.611886845163632
13.612968304055517
13.613675955093589
13.61392254278617
15.40807104007568
15.408168512219888
15.408449935510788
15.408885128539781
15.409431956504125
15.410045217742098
15.41068428892045
15.411317758444833
15.411924898720859
15.412494810905967
15.413024456750502
15.413516468365724
15.413977262695006
15.41441563990823
15.414841833231907
15.415266910667494
15.415702405108991
15.41616003430099
15.416651380664796
15.417187391520882
15.41777754825585
15.418428553397295
15.4191423941915
15.419913783641922
15.420727191380877
15.42155416491753
15.42235217083878
15.423066516135043
15.423636527856187
15.424005730755045
15.42413370393462
17.228266115735703
17.228286625172398
17.228346894147858
17.228443376218667
17.228570857554427
17.228723277717886
17.22889454014033
17.229079139658825
17.229272545694915
17.229471342232273
17.22967319887186
17.229876734760175
17.230081338569793
17.230286984958457
17.23049406068456
17.230703206087192
17.230915170839193
17.23113067223626
17.23135024664792
17.23157408341578
17.231801832527115
17.23203238511802
17.232263630050983
17.23249222047654
17.232713393131025
17.23292092588342
17.233107328108513
17.23326434615542
17.233383803552247
17.233458678814113
17.233484201522504
17.32982204359371
17.329838965548912
17.329888878097673
17.329969356311995
17.330076770478207
17.33020678782925
17.330354895675782
17.33051684001184
17.330688932607387
17.330868206267244
17.331052451955443
17.331240165486754
17.33143044373083
17.331622860630556
17.331817335251735
17.33201400057655
17.332213076823088
17.33241474338973
17.332619005845064
17.332825553387543
17.333033604464838
17.333241745376178
17.333447769266993
17.333648546570814
17.333839956953945
17.334016937376965
17.334173693885887
17.334304107429908
17.33440232230984
17.334463441612577
17.334484197730422
17.431272853913725
17.43128709116047
17.431329206512935
17.43139749276968
17.431489357177817
17.43160163733667
17.431730944972582
17.431873971423734
17.43202772271035
17.432189660032062
17.43235776082229
17.43253050954984
17.432706842329086
17.432886066362475
17.43306776323864
17.433251684875003
17.43343764810563
17.433625425684447
17.433814633993244
17.43400461692984
17.43419432737559
17.434382213406444
17.434566116859603
17.434743209542884
17.43490998549273
17.435062342680848
17.43519577582161
17.435305687571063
17.435387799642864
17.43543860979046
17.43545581454713
17.53262363492325
17.53263581335431
17.532671920057368
17.532730720743327
17.53281031816156
17.532908356220734
17.533022249941375
17.533149398868346
17.533287363226137
17.533433980730397
17.533587431125287
17.53374624830775
17.53390929416424
17.53407570817376
17.534244838493358
17.534416162158358
17.534589200995622
17.534763433040773
17.534938201982655
17.535112626423853
17.535285512138323
17.535455274828813
17.535619879554893
17.535776816322336
17.535923121605073
17.53605546585126
17.5361703150967
17.536264164672357
17.536333827667868
17.536376740728674
17.536391237795048
17.633878207106633
17.63388877355613
17.633920156836986
17.633971442043382
17.63404120835329
17.634127663952142
17.634228802473185
17.634342553013262
17.634466910960374
17.634600031070143
17.634740286636386
17.634886290323863
17.635036884892756
17.635191113108988
17.635348169893145
17.635507342870824
17.635667947658643
17.635829258590736
17.63599043844788
17.636150470043674
17.63630809340563
17.63646175540694
17.63660957618698
17.636749347065606
17.636878563984766
17.636994508538336
17.637094378057505
17.63717545963652
17.63723533409679
17.63727208421718
17.63728447625041
17.73503946083866
17.735048742998224
17.735076350572268
17.735121588939123
17.735183369693914
17.735260301643727
17.735350798954006
17.73545318742741
17.735565801471957
17.735687056611305
17.735815500288997
17.735949834866744
17.7360889176733
17.736231744316637
17.7363774164115
17.736525098513365
17.736673969947596
17.736823172485998
17.736971757697923
17.73711863710181
17.737262538727084
17.737401975924644
17.737535231097187
17.73766036544162
17.73777525519762
17.737877661830332
17.737965334595085
17.738036139913024
17.73808820696061
17.73812007183142
17.7381308004935
17.83286778743295
17.832876028629805
17.832900567306577
17.832940863712768
17.832996065404956
17.833065069721016
17.833146599678756
17.833239279918153
17.83334170873458
17.833452513918623
17.83357039493651
17.833694144983262
17.833822655891286
17.8339549101721
17.834089960086892
17.834226897400953
17.83436481875267
17.83450278748046
17.834639795555894
17.834774728575002
17.834906336963634
17.83503321817497
17.83515381122784
17.83526641207108
17.835369208223973
17.835460337493487
17.835537968046953
17.835600394827097
17.835646144553277
17.83567407709623
17.83568347038429
17.9241000515246
17.924107435530452
17.924129441112278
17.924165639341027
17.92421534800579
17.924277675199953
17.924351573358756
17.924435894016437
17.924529441593883
17.924631016201324
17.92473944808134
17.924853617456908
17.924972461751764
17.925094973265033
17.92522018641342
17.925347157310096
17.925474939873904
17.925602559046045
17.925728984368188
17.925853106488642
17.925973719191358
17.926089510769195
17.926199065120073
17.926300879207854
17.926393394247732
17.92647504394912
17.92654431682469
17.926599828402125
17.926640397772964
17.92666511993507
17.92667342545638
18.00870427626464
18.00871094691399
18.00873084028177
18.008763607946808
18.00880869224279
18.00886535712493
18.008932727194512
18.009009827566413
18.00909562434552
18.00918905745207
18.009289068581566
18.009394618535474
18.009504695353503
18.009618315592792
18.009734517409512
18.009852347541162
18.00997084572796
18.01008902684159
18.010205863507103
18.01032027133481
18.01043109880404
18.010537124819102
18.010637063642598
18.010729582550535
18.01081332905893
18.010886970242836
18.010949241290298
18.01099899997061
18.01103528307742
18.01105735879476
18.0110647693142
18.086650768202748
18.086656840526675
18.08667495936992
18.086704835602212
18.086746003852248
18.08679784468596
18.08685961320336
18.086930468377087
18.087009503824486
18.087095773099648
18.087188312427884
18.08728615565181
18.08738834254226
18.087493922362093
18.087601951090793
18.08771148390843
18.087821565922436
18.087931221112548
18.088039441820445
18.088145180464153
18.088247345029885
18.088344800719717
18.08843637701156
18.088520884559614
18.088597138610545
18.08866399100792
18.08872036821583
18.088765312770498
18.08879802540307
18.088817903487193
18.08882457196318
18.15791207057446
18.15791763852477
18.157934259453125
18.157961688433062
18.157999529287878
18.158047250762145
18.158104207804712
18.15816966342127
18.158242812368055
18.158322800805237
18.158408744919445
18.158499743795176
18.15859488754783
18.15869326231565
18.158793950401982
18.158896026797755
18.158998554609482
18.15910057911928
18.15920112239128
18.15929917971872
18.15939371905823
18.159483685327125
18.1595680085362
18.15964561952896
18.159715470014227
18.15977655871302
18.159827961373967
18.15986886265744
18.1598985879834
18.159916632173406
18.15992268224467
18.222462944321396
18.222468086221305
18.222483440428217
18.222508795324252
18.222543807136397
18.22258801191387
18.22264084163934
18.22270164073406
18.22276968458355
18.222844194995485
18.222924355636067
18.223009323180328
18.223098235116616
18.223190215612174
18.223284377693243
18.223379822697193
18.223475639152255
18.223570900612426
18.22366466401196
18.223755969512464
18.223843842664028
18.22392730037118
18.224005359464172
18.22407705116918
18.22414143826859
18.224197636626933
18.224244839139672
18.224282340568994
18.22430956197025
18.22432607236041
18.224331605793154
18.28028075314909
18.28028553560084
18.28029982013066
18.280323420435643
18.280356032753943
18.280397244890327
18.28044654864631
18.28050335249179
18.280566996314544
18.28063676376944
18.280711895272795
18.2807915977659
18.28087505214964
18.280961419665942
18.281049845486784
18.28113946026723
18.281229381522646
18.281318714206996
18.281406551769905
18.281491978407804
18.28157407307825
18.281651916475976
18.281724599675595
18.281791237380297
18.281850982712704
18.2819030451327
18.28194670980292
18.281981357220918
18.2820064822569
18.282021710822995
18.282026812888038
18.331344748250576
18.33134922898915
18.331362614990983
18.33138473930284
18.331415328873174
18.33145401148907
18.331500325574282
18.331553730107043
18.331613616609697
18.331679319204383
18.331750125750812
18.331825286515006
18.331904021247162
18.331985525850534
18.332068976932522
18.332153534845627
18.332238346846378
18.332322549637475
18.33240527234379
18.332485640435763
18.332562780977955
18.33263583018136
18.332703941918464
18.332766299873164
18.332822130416343
18.332870717730025
18.33291141971953
18.332943683800593
18.332967062009295
18.332981224068057
18.332985967496693
18.37563704145498
18.37564127146064
18.37565391031582
18.37567480587953
18.375703708697163
18.375740277455353
18.375784086894882
18.37583463575036
18.375891356726928
18.375953624871535
18.376020767311164
18.376092071070985
18.3761667898341
18.376244150754612
18.376323359655498
18.376403605109893
18.37648406285128
18.376563899700713
18.376642277883562
18.376718360095765
18.376791315555067
18.376860327851535
18.376924603240848
18.376983381849104
18.377035949026563
18.37708164832768
18.377119894832326
18.377150188095303
18.377172124390878
18.377185407174718
18.377189855110537
18.41314171149241
18.41314573659391
18.413157764579008
18.41317765459094
18.4132051752105
18.41324000886134
18.413281758376126
18.413329953521444
18.413384059513984
18.41344348416519
18.41350758657515
18.413575684301044
18.413647059847378
18.413720967536797
18.41379663913482
18.413873288646744
18.413950117592396
18.41402631989344
18.414101087110605
18.414173614275807
18.414243106450513
18.414308786703746
18.414369904154594
18.414425744393526
18.414475639648803
18.4145189801402
18.414555225472
18.41458391550009
18.414604680493632
18.414617249719193
18.414621457972803
18.44384554610312
18.443849408214152
18.44386095010778
18.44388003939611
18.443906458233624
18.443939906985882
18.44398000984359
18.444026320346854
18.444078328855646
18.444135468813577
18.444197124676492
18.444262638595017
18.44433131668707
18.444402435917603
18.444475249998472
18.444548994668118
18.444622893550807
18.444696163696076
18.444768021434125
18.444837688709363
18.444904399947944
18.444967410066027
18.44502600227287
18.445079497866487
18.44512726549641
18.445168731307096
18.445203388918245
18.445230808784057
18.445250646858604
18.445262651839688
18.44526667063942
18.46773768117442
18.467741419277587
18.467752591237602
18.467771070819428
18.467796650061548
18.467829042440297
18.467867887827378
18.467912757324484
18.46796316000529
18.468018548564906
18.468078326704806
18.468141855465166
18.468208459330278
18.46827743309461
18.468348047933958
18.468419557001074
18.468491201668513
18.468562217497208
18.468631840494744
18.468699313766336
18.46876389456331
18.468824862273333
18.468881526020095
18.46893323398384
18.46897938200251
18.469019422844518
18.469052875185913
18.469079331908596
18.469098467719533
18.469110045462465
18.46911392085324
18.48480952021634
18.484813171169392
18.484824083097134
18.48484213394274
18.4848671224683
18.484898771092553
18.484936730420834
18.48498058363137
18.485029852739004
18.485084003841628
18.485142454142867
18.48520457804854
18.485269713154523
18.485337167092524
18.485406223702498
18.485476148823807
18.485546196775978
18.48561561659439
18.485683658536594
18.4857495809239
18.485812657289003
18.4858721843335
18.48592748937415
18.485977939330933
18.486022948877327
18.48606198912733
18.48609459594425
18.486120377537127
18.486139021391093
18.486150299968017
18.486154074960886
18.495055073077637
18.49505867229663
18.49506942984463
18.495087226089392
18.495111863699226
18.495143070297374
18.495180502751268
18.49522375130625
18.495272345578687
18.495325759573852
18.495383418501675
18.49544470473702
18.495508963737745
18.495575510874534
18.495643637655895
18.495712617625255
18.495781712970434
18.495850180904466
18.495917280305726
18.495982278659813
18.49604445925543
18.496103129114744
18.496157626344846
18.49620732892919
18.496251662615798
18.496290109266848
18.49632221478499
18.496347596309906
18.496365948757678
18.496377050175234
18.49638076572305
18.49847065164174
18.49847423370737
18.49848494006484
18.498502651876795
18.498527173092892
18.498558233045205
18.498595490659635
18.498638538508263
18.49868690871471
18.4987400778982
18.49879747392189
18.49885848180857
18.49892244963574
18.49898869535943
18.49905651305544
18.49912517884986
18.49919395756916
18.499262109167034
18.499328895406535
18.499393586833218
18.499455469985264
18.499513855313566
18.499568084501263
18.499617539189906
18.49966164878192
18.49969989867996
18.499731838088643
18.499757087081377
18.499775343012914
18.499786385761706
18.499790081624845
