# vtk DataFile Version 2.0
Unstructured Grid Example
ASCII
DATASET UNSTRUCTURED_GRID

POINTS 961 float
0.400000004 0.01999999956 0
0.3866666556 0.01999999956 0
0.3733333348 0.01999999956 0
0.3600000144 0.01999999956 0
0.346666664 0.01999999956 0
0.3333333432 0.01999999956 0
0.3199999928 0.01999999956 0
0.3066666724 0.01999999956 0
0.293333322 0.01999999956 0
0.2800000012 0.01999999956 0
0.2666666804 0.01999999956 0
0.25333333 0.01999999956 0
0.2399999948 0.01999999956 0
0.226666674 0.01999999956 0
0.2133333384 0.01999999956 0
0.2000000028 0.01999999956 0
0.1866666676 0.01999999956 0
0.173333332 0.01999999956 0
0.1599999964 0.01999999956 0
0.1466666608 0.01999999956 0
0.1333333404 0.01999999956 0
0.1199999972 0.01999999956 0
0.1066666692 0.01999999956 0
0.0933333336 0.01999999956 0
0.0799999984 0.01999999956 0
0.06666667 0.01999999956 0
0.0533333348 0.01999999956 0
0.03999999912 0.01999999956 0
0.02666666732 0.01999999956 0
0.01333333364 0.01999999956 0
0.0 0.01999999956 0
0.400000004 0.00666666684 0
0.3866666556 0.00666666684 0
0.3733333348 0.00666666684 0
0.3600000144 0.00666666684 0
0.346666664 0.00666666684 0
0.3333333432 0.00666666684 0
0.3199999928 0.00666666684 0
0.3066666724 0.00666666684 0
0.293333322 0.00666666684 0
0.2800000012 0.00666666684 0
0.2666666804 0.00666666684 0
0.25333333 0.00666666684 0
0.2399999948 0.00666666684 0
0.226666674 0.00666666684 0
0.2133333384 0.00666666684 0
0.2000000028 0.00666666684 0
0.1866666676 0.00666666684 0
0.173333332 0.00666666684 0
0.1599999964 0.00666666684 0
0.1466666608 0.00666666684 0
0.1333333404 0.00666666684 0
0.1199999972 0.00666666684 0
0.1066666692 0.00666666684 0
0.0933333336 0.00666666684 0
0.0799999984 0.00666666684 0
0.06666667 0.00666666684 0
0.0533333348 0.00666666684 0
0.03999999912 0.00666666684 0
0.02666666732 0.00666666684 0
0.01333333364 0.00666666684 0
0.0 0.00666666684 0
0.400000004 -0.00666666684 0
0.3866666556 -0.00666666684 0
0.3733333348 -0.00666666684 0
0.3600000144 -0.00666666684 0
0.346666664 -0.00666666684 0
0.3333333432 -0.00666666684 0
0.3199999928 -0.00666666684 0
0.3066666724 -0.00666666684 0
0.293333322 -0.00666666684 0
0.2800000012 -0.00666666684 0
0.2666666804 -0.00666666684 0
0.25333333 -0.00666666684 0
0.2399999948 -0.00666666684 0
0.226666674 -0.00666666684 0
0.2133333384 -0.00666666684 0
0.2000000028 -0.00666666684 0
0.1866666676 -0.00666666684 0
0.173333332 -0.00666666684 0
0.1599999964 -0.00666666684 0
0.1466666608 -0.00666666684 0
0.1333333404 -0.00666666684 0
0.1199999972 -0.00666666684 0
0.1066666692 -0.00666666684 0
0.0933333336 -0.00666666684 0
0.0799999984 -0.00666666684 0
0.06666667 -0.00666666684 0
0.0533333348 -0.00666666684 0
0.03999999912 -0.00666666684 0
0.02666666732 -0.00666666684 0
0.01333333364 -0.00666666684 0
0.0 -0.00666666684 0
0.400000004 -0.01999999956 0
0.3866666556 -0.01999999956 0
0.3733333348 -0.01999999956 0
0.3600000144 -0.01999999956 0
0.346666664 -0.01999999956 0
0.3333333432 -0.01999999956 0
0.3199999928 -0.01999999956 0
0.3066666724 -0.01999999956 0
0.293333322 -0.01999999956 0
0.2800000012 -0.01999999956 0
0.2666666804 -0.01999999956 0
0.25333333 -0.01999999956 0
0.2399999948 -0.01999999956 0
0.226666674 -0.01999999956 0
0.2133333384 -0.01999999956 0
0.2000000028 -0.01999999956 0
0.1866666676 -0.01999999956 0
0.173333332 -0.01999999956 0
0.1599999964 -0.01999999956 0
0.1466666608 -0.01999999956 0
0.1333333404 -0.01999999956 0
0.1199999972 -0.01999999956 0
0.1066666692 -0.01999999956 0
0.0933333336 -0.01999999956 0
0.0799999984 -0.01999999956 0
0.06666667 -0.01999999956 0
0.0533333348 -0.01999999956 0
0.03999999912 -0.01999999956 0
0.02666666732 -0.01999999956 0
0.01333333364 -0.01999999956 0
0.0 -0.01999999956 0
0.400000004 -0.03333333508 0
0.3866666556 -0.03333333508 0
0.3733333348 -0.03333333508 0
0.3600000144 -0.03333333508 0
0.346666664 -0.03333333508 0
0.3333333432 -0.03333333508 0
0.3199999928 -0.03333333508 0
0.3066666724 -0.03333333508 0
0.293333322 -0.03333333508 0
0.2800000012 -0.03333333508 0
0.2666666804 -0.03333333508 0
0.25333333 -0.03333333508 0
0.2399999948 -0.03333333508 0
0.226666674 -0.03333333508 0
0.2133333384 -0.03333333508 0
0.2000000028 -0.03333333508 0
0.1866666676 -0.03333333508 0
0.173333332 -0.03333333508 0
0.1599999964 -0.03333333508 0
0.1466666608 -0.03333333508 0
0.1333333404 -0.03333333508 0
0.1199999972 -0.03333333508 0
0.1066666692 -0.03333333508 0
0.0933333336 -0.03333333508 0
0.0799999984 -0.03333333508 0
0.06666667 -0.03333333508 0
0.0533333348 -0.03333333508 0
0.03999999912 -0.03333333508 0
0.02666666732 -0.03333333508 0
0.01333333364 -0.03333333508 0
0.0 -0.03333333508 0
0.400000004 -0.0466666668 0
0.3866666556 -0.0466666668 0
0.3733333348 -0.0466666668 0
0.3600000144 -0.0466666668 0
0.346666664 -0.0466666668 0
0.3333333432 -0.0466666668 0
0.3199999928 -0.0466666668 0
0.3066666724 -0.0466666668 0
0.293333322 -0.0466666668 0
0.2800000012 -0.0466666668 0
0.2666666804 -0.0466666668 0
0.25333333 -0.0466666668 0
0.2399999948 -0.0466666668 0
0.226666674 -0.0466666668 0
0.2133333384 -0.0466666668 0
0.2000000028 -0.0466666668 0
0.1866666676 -0.0466666668 0
0.173333332 -0.0466666668 0
0.1599999964 -0.0466666668 0
0.1466666608 -0.0466666668 0
0.1333333404 -0.0466666668 0
0.1199999972 -0.0466666668 0
0.1066666692 -0.0466666668 0
0.0933333336 -0.0466666668 0
0.0799999984 -0.0466666668 0
0.06666667 -0.0466666668 0
0.0533333348 -0.0466666668 0
0.03999999912 -0.0466666668 0
0.02666666732 -0.0466666668 0
0.01333333364 -0.0466666668 0
0.0 -0.0466666668 0
0.400000004 -0.0599999988 0
0.3866666556 -0.0599999988 0
0.3733333348 -0.0599999988 0
0.3600000144 -0.0599999988 0
0.346666664 -0.0599999988 0
0.3333333432 -0.0599999988 0
0.3199999928 -0.0599999988 0
0.3066666724 -0.0599999988 0
0.293333322 -0.0599999988 0
0.2800000012 -0.0599999988 0
0.2666666804 -0.0599999988 0
0.25333333 -0.0599999988 0
0.2399999948 -0.0599999988 0
0.226666674 -0.0599999988 0
0.2133333384 -0.0599999988 0
0.2000000028 -0.0599999988 0
0.1866666676 -0.0599999988 0
0.173333332 -0.0599999988 0
0.1599999964 -0.0599999988 0
0.1466666608 -0.0599999988 0
0.1333333404 -0.0599999988 0
0.1199999972 -0.0599999988 0
0.1066666692 -0.0599999988 0
0.0933333336 -0.0599999988 0
0.0799999984 -0.0599999988 0
0.06666667 -0.0599999988 0
0.0533333348 -0.0599999988 0
0.03999999912 -0.0599999988 0
0.02666666732 -0.0599999988 0
0.01333333364 -0.0599999988 0
0.0 -0.0599999988 0
0.400000004 -0.0733333304 0
0.3866666556 -0.0733333304 0
0.3733333348 -0.0733333304 0
0.3600000144 -0.0733333304 0
0.346666664 -0.0733333304 0
0.3333333432 -0.0733333304 0
0.3199999928 -0.0733333304 0
0.3066666724 -0.0733333304 0
0.293333322 -0.0733333304 0
0.2800000012 -0.0733333304 0
0.2666666804 -0.0733333304 0
0.25333333 -0.0733333304 0
0.2399999948 -0.0733333304 0
0.226666674 -0.0733333304 0
0.2133333384 -0.0733333304 0
0.2000000028 -0.0733333304 0
0.1866666676 -0.0733333304 0
0.173333332 -0.0733333304 0
0.1599999964 -0.0733333304 0
0.1466666608 -0.0733333304 0
0.1333333404 -0.0733333304 0
0.1199999972 -0.0733333304 0
0.1066666692 -0.0733333304 0
0.0933333336 -0.0733333304 0
0.0799999984 -0.0733333304 0
0.06666667 -0.0733333304 0
0.0533333348 -0.0733333304 0
0.03999999912 -0.0733333304 0
0.02666666732 -0.0733333304 0
0.01333333364 -0.0733333304 0
0.0 -0.0733333304 0
0.400000004 -0.086666666 0
0.3866666556 -0.086666666 0
0.3733333348 -0.086666666 0
0.3600000144 -0.086666666 0
0.346666664 -0.086666666 0
0.3333333432 -0.086666666 0
0.3199999928 -0.086666666 0
0.3066666724 -0.086666666 0
0.293333322 -0.086666666 0
0.2800000012 -0.086666666 0
0.2666666804 -0.086666666 0
0.25333333 -0.086666666 0
0.2399999948 -0.086666666 0
0.226666674 -0.086666666 0
0.2133333384 -0.086666666 0
0.2000000028 -0.086666666 0
0.1866666676 -0.086666666 0
0.173333332 -0.086666666 0
0.1599999964 -0.086666666 0
0.1466666608 -0.086666666 0
0.1333333404 -0.086666666 0
0.1199999972 -0.086666666 0
0.1066666692 -0.086666666 0
0.0933333336 -0.086666666 0
0.0799999984 -0.086666666 0
0.06666667 -0.086666666 0
0.0533333348 -0.086666666 0
0.03999999912 -0.086666666 0
0.02666666732 -0.086666666 0
0.01333333364 -0.086666666 0
0.0 -0.086666666 0
0.400000004 -0.1000000016 0
0.3866666556 -0.1000000016 0
0.3733333348 -0.1000000016 0
0.3600000144 -0.1000000016 0
0.346666664 -0.1000000016 0
0.3333333432 -0.1000000016 0
0.3199999928 -0.1000000016 0
0.3066666724 -0.1000000016 0
0.293333322 -0.1000000016 0
0.2800000012 -0.1000000016 0
0.2666666804 -0.1000000016 0
0.25333333 -0.1000000016 0
0.2399999948 -0.1000000016 0
0.226666674 -0.1000000016 0
0.2133333384 -0.1000000016 0
0.2000000028 -0.1000000016 0
0.1866666676 -0.1000000016 0
0.173333332 -0.1000000016 0
0.1599999964 -0.1000000016 0
0.1466666608 -0.1000000016 0
0.1333333404 -0.1000000016 0
0.1199999972 -0.1000000016 0
0.1066666692 -0.1000000016 0
0.0933333336 -0.1000000016 0
0.0799999984 -0.1000000016 0
0.06666667 -0.1000000016 0
0.0533333348 -0.1000000016 0
0.03999999912 -0.1000000016 0
0.02666666732 -0.1000000016 0
0.01333333364 -0.1000000016 0
0.0 -0.1000000016 0
0.400000004 -0.1133333372 0
0.3866666556 -0.1133333372 0
0.3733333348 -0.1133333372 0
0.3600000144 -0.1133333372 0
0.346666664 -0.1133333372 0
0.3333333432 -0.1133333372 0
0.3199999928 -0.1133333372 0
0.3066666724 -0.1133333372 0
0.293333322 -0.1133333372 0
0.2800000012 -0.1133333372 0
0.2666666804 -0.1133333372 0
0.25333333 -0.1133333372 0
0.2399999948 -0.1133333372 0
0.226666674 -0.1133333372 0
0.2133333384 -0.1133333372 0
0.2000000028 -0.1133333372 0
0.1866666676 -0.1133333372 0
0.173333332 -0.1133333372 0
0.1599999964 -0.1133333372 0
0.1466666608 -0.1133333372 0
0.1333333404 -0.1133333372 0
0.1199999972 -0.1133333372 0
0.1066666692 -0.1133333372 0
0.0933333336 -0.1133333372 0
0.0799999984 -0.1133333372 0
0.06666667 -0.1133333372 0
0.0533333348 -0.1133333372 0
0.03999999912 -0.1133333372 0
0.02666666732 -0.1133333372 0
0.01333333364 -0.1133333372 0
0.0 -0.1133333372 0
0.400000004 -0.1266666652 0
0.3866666556 -0.1266666652 0
0.3733333348 -0.1266666652 0
[...]
POINT_DATA 961
SCALARS Temp float 1
LOOKUP_TABLE default
0.7051743318641107
0.7333392081114393
0.7535513251751371
0.7682475157974965
0.779015535260464
0.7869441427630652
0.792808466964484
0.797166415690026
0.800424056831897
0.8028789211044269
0.8047516019587776
0.8062076670467302
0.8073736448913191
0.8083494667439554
0.8092177499376041
0.8100511622115549
0.8109191653506146
0.8118942143332633
0.8130582698798087
0.8145102489324462
0.8163750982393676
0.8188157401813185
0.822048300141181
0.8263637420064343
0.8321569142713615
0.8399677716363406
0.8505401037454674
0.8649074541121292
0.8845239918097654
0.9115001374994557
0.9491835496526541
0.7442981767470331
0.7719158258358895
0.791910849047275
0.8065265936819719
0.8172576353507711
0.8251710616278964
0.831030810050854
0.8353894622169425
0.838650302888525
0.8411094146496773
0.842986647464712
0.8444472192542977
0.8456175348263517
0.8465975228132093
0.8474698652300747
0.8483073341138502
0.8491795099947667
0.850158965969804
0.8513277624399571
0.8527848714429335
0.8546552088089648
0.8571015007018337
0.8603393911085377
0.8646588357706279
0.8704527311513629
0.8782573133006475
0.8888092263102807
0.9031272432959777
0.9226347808335238
0.9493358877256
0.9861332701971508
2.576040185802083
2.5801432029750107
2.5915784225640723
2.602125091074081
2.610846282927076
2.6177850503207187
2.6232178452266957
2.627443109253998
2.630725562923102
2.6332849157633373
2.6352989223981487
2.636910502988244
2.6382354602135942
2.6393696968756295
2.6403956391523007
2.6413879799442697
2.6424190203308155
2.6435639081183466
2.6449060565389577
2.6465430798344536
2.648593577168325
2.6512049894888556
2.6545626648767744
2.658899776061656
2.664506541653659
2.6717340232053797
2.6809789032547995
2.6926087503114364
2.706680196551293
2.7219334942783684
2.7274095920637262
4.384954115036873
4.3871931717829815
4.392688655891212
4.399555417358842
4.406066053842218
4.411710515467626
4.416405925758299
4.420231289435563
4.423317268326928
4.4258015677101605
4.427811926882756
4.429461036691006
4.430846755059621
4.43205460208566
4.433161140928885
4.434237685389401
4.435354138630256
4.43658290654583
4.438002917196072
4.43970375699814
4.441789835581455
4.444384289135334
4.447631767565481
4.451698365534101
4.456764549412301
4.463002135063489
4.4705146184309585
4.479189714575997
4.488344557193819
4.495673327335049
4.498659311526221
6.188525564750561
6.189717122567907
6.1929373912379555
6.197297490418294
6.201940566684801
6.206303119268464
6.210153218574334
6.213436102811389
6.2161833378542894
6.218463594847896
6.220357820690124
6.221947427041884
6.223309468123114
6.2245155313733695
6.225632549142187
6.226724617072301
6.227855331556716
6.2290903453133835
6.230499946618956
6.232161434490781
6.234160921164293
6.236593907094179
6.239563327648689
6.243172797990554
6.247510576618974
6.252616133310493
6.2584143380583175
6.264593897228414
6.270401492503261
6.27469263641615
6.276280732226969
7.988873379571723
7.989599076363293
7.991607049000577
7.994481866832958
7.997742721686915
8.00100606985491
8.00403770364387
8.006731946433831
8.009064378539083
8.01105615798392
8.01275141950376
8.014204142923752
8.015471183889426
8.016609101854636
8.017673223971613
8.018718010092412
8.019798131520677
8.0209698393977
8.022292296309258
8.023828507690487
8.02564534865972
8.027811918899168
8.03039491970683
8.033449085748774
8.036999422613398
8.041010792542748
8.045340197806235
8.049673501585056
8.05349768434086
8.056170279466798
8.057136418046303
9.787051155101825
9.787513288050603
9.788816139611288
9.790742055026564
9.793018951796885
9.795398323526973
9.797699947449662
9.799818186309283
9.801707422606622
9.803362458102004
9.80480258463367
9.806060553651918
9.807175729192565
9.808190277705148
9.809147363243818
9.810090608885217
9.811064286705264
9.8121138008066
9.813286100037004
9.814629623031507
9.816193268035308
9.818023697397459
9.820159951375926
9.822624101775647
9.825406339656322
9.828443515638455
9.831592908102312
9.834612629475064
9.83717004100395
9.83890133596338
9.839515642348173
11.583523365225762
11.583820957906168
11.584669216660181
11.585949355567978
11.587504480610065
11.589179550181413
11.5908494770819
11.592430096740731
11.59387585071611
11.59517119307562
11.596321188433457
11.597343778552611
11.598264320138046
11.5991121416098
11.599918600187458
11.600716162096479
11.60153809804141
11.602418425494767
11.60339177277264
11.604492813116781
11.605754847485581
11.607207021215123
11.608869513358654
11.6107460974891
11.612813678818974
11.615009597063768
11.617220101620727
11.619277143162256
11.620973003755251
11.622097735543495
11.622492485211007
13.378520717642516
13.37870431304531
13.379231463435783
13.380037968545038
13.381036105012129
13.382134705407932
13.383255229816076
13.384340201872803
13.385354550221024
13.386282444738747
13.387122510644568
13.387883194520136
13.388579112889591
13.389228527774764
13.389851765732974
13.390470328077617
13.391106433817441
13.391782735531475
13.392521969575773
13.3933462840475
13.394275953260916
13.39532715787535
13.3965084794334
13.397815933621544
13.399226692882
13.400692599498548
13.40213590614058
13.403450986138125
13.404515583688642
13.405212216535494
13.40545496736038
15.17215564541775
15.172251554764355
15.172528458757487
15.172956640421095
15.173494613918097
15.174097874980202
15.174726428968043
15.175349353273267
15.175946246935487
15.176506388402688
15.17702679737963
15.177510078012173
15.17796256210134
15.178392928804604
15.17881126886521
15.1792284953429
15.179655979230454
15.18010527354034
15.180587797873232
15.181114346134663
15.181694268270805
15.182334177292473
15.183036042373853
15.183794668930409
15.184594774840006
15.185408352594244
15.18619352814138
15.186896452703426
15.187457387725015
15.187820726604206
15.187946669732673
16.96448205703853
16.96450217194861
16.964561277509077
16.964655884213816
16.964780862423545
16.964930250535946
16.965098052975737
16.965278858051846
16.965468215153596
16.965662772486205
16.96586024842236
16.96605929737695
16.966259332397797
16.966460344258717
16.96666273006629
16.966867136997244
16.967074320071557
16.967285002428632
16.96749972886899
16.9677187021135
16.967941593245328
16.968167325395022
16.96839383389403
16.968617836242654
16.96883465404004
16.969038171047075
16.969221020527034
16.96937508287537
16.96949231287229
16.96956580091956
16.96959085228776
17.064483168663923
17.064499750000635
17.064548654653137
17.06462749749182
17.064732708793883
17.06486002825023
17.065005020010055
17.065163504498443
17.065331860689934
17.065507178890122
17.065687297142915
17.065870748599576
17.06605665916411
17.066244625231374
17.066434583583778
17.06662668202173
17.066821154431793
17.067018194506744
17.067217824585875
17.06741975511251
17.067623232438358
17.06782687971579
17.068028538204416
17.068225139526366
17.06841263851647
17.06858606041206
17.068739709282134
17.06886756753119
17.068963875249736
17.069023814932113
17.06904417168
17.16438093797458
17.164394873804437
17.164436094952276
17.16450292308779
17.164592809674414
17.164702646992026
17.164829106569698
17.16496893991907
17.165119209885685
17.165277428892676
17.16544161890823
17.165610302246055
17.165782446872154
17.16595738689802
17.166134727182023
17.166314240689232
17.16649576449776
17.166679092281512
17.166863863546887
17.167049449109815
17.167234834195074
17.16741850620399
17.16759835467714
17.16777160830601
17.167934827169688
17.168083983051442
17.168214649172064
17.168322306521524
17.168402748590612
17.168452531286402
17.168469389149674
17.26418037907509
17.264192284803197
17.264227580904972
17.26428505481328
17.264362842996526
17.26445863190869
17.264569884339963
17.26469404948513
17.26482873627805
17.264971828308795
17.26512154721557
17.26527646447668
17.265435475491188
17.26559774976472
17.26576266286676
17.265929717670723
17.26609846135263
17.266268397968794
17.266438899089774
17.2666091142548
17.26677788438353
17.266943665524213
17.2671044690467
17.267257837425205
17.267400865286106
17.2675302854304
17.26764262784673
17.267734449734736
17.26780261945953
17.267844617594925
17.267858806419966
17.363885259525624
17.36389557420972
17.363926208020043
17.36397626300494
17.36404434496913
17.364128696284098
17.36422734984867
17.3643382767281
17.364459514849504
17.3645892605428
17.364725926641217
17.364868162842008
17.36501484640952
17.36516505234913
17.365318006097493
17.36547302479324
17.365629453342894
17.365786596003773
17.365943646983318
17.36609962286881
17.366253300572737
17.366403167535353
17.366547388489785
17.36668380321995
17.3668099593392
17.366923191929516
17.367020751503745
17.36709997525663
17.367158487809796
17.367194406179166
17.367206518458847
17.463498432866032
17.463507478205063
17.463534380013378
17.46357845740495
17.46363864376719
17.463713576312916
17.46380170248212
17.463901384509555
17.464010994772547
17.464128987074794
17.46425394650017
17.46438461189769
17.464519875757745
17.464658767572317
17.46480042185527
17.464944035535844
17.465088820303386
17.46523395086994
17.465378512910977
17.46552145376544
17.465661539454793
17.46579732375996
17.465927132022422
17.4660490705391
17.466161062097093
17.46626091492393
17.466346423543687
17.46641549605589
17.46646629739473
17.46649739120523
17.466507860862
17.559829978360547
17.55983799359106
17.559861858293672
17.559901044248544
17.55995471746666
17.560021799655026
17.560101042859536
17.56019110415609
17.560290616437907
17.56039824327803
17.560512720281974
17.560632876633527
17.560757639746964
17.56088602721209
17.561017125973017
17.561150062335095
17.561283967630242
17.561417940401665
17.561551008691673
17.56168209534274
17.561809989424496
17.56193332848149
17.562050592967005
17.56216012116325
17.562260143123996
17.56234883832646
17.562424414372423
17.562485201804975
17.562529757395634
17.56255696388444
17.562566113527332
17.649666792878804
17.649673959245728
17.64969531529902
17.649730442100335
17.649778673546262
17.64983913923198
17.64991081756341
17.649992589583345
17.650083291785773
17.650181758134888
17.650286853790195
17.650397494472752
17.650512653385093
17.650631358692383
17.650752680737547
17.650875711712096
17.65099954188587
17.65112323299638
17.651245791992118
17.651366147661378
17.65148313270653
17.651595475016336
17.65170179854817
17.65180064030247
17.65189048085522
17.651969791687854
17.652037096389762
17.652091041636524
17.652130472455166
17.652154503372692
17.652162577104583
17.732977361533504
17.73298382096964
17.733003083708798
17.733034810234898
17.733078457325423
17.733133308388062
17.733198511785442
17.733273119995697
17.733356129312916
17.73344651203613
17.73354324380238
17.733645320466497
17.733751765910892
17.73386163306615
17.733973996866712
17.734087941202077
17.734202543321164
17.734316855986698
17.734429890113823
17.734540599980644
17.73464787302717
17.73475052720554
17.73484731563218
17.73493694374408
17.735018095925547
17.735089474043427
17.735149845098544
17.735198094726652
17.73523328266112
17.735254694207086
17.7352618821419
17.80973240209147
17.809738268179878
17.809755771060217
17.80978462973635
17.809824392093937
17.809874456679538
17.809934100753427
17.81000250907872
17.81007880406008
17.810162070509637
17.81025137782701
17.810345794523922
17.810444396202264
17.81054626881523
17.810650505693506
17.81075619990532
17.810862434859562
17.810968273162658
17.8110727460101
17.811174844770736
17.811273516298783
17.811367664303646
17.811456156088312
17.81153783895384
17.81161156306687
17.81167621278538
17.81173074393486
17.811774224486896
17.811805875916317
17.811825110966637
17.811831564034
17.879904820785747
17.879910186364583
17.879926202731607
17.879952632543883
17.87998909203096
17.880035066857175
17.880089932969035
17.880152978009544
17.88022342448143
17.88030044895603
17.880383200197283
17.880470811636954
17.88056240917046
17.880657115815847
17.880754051604836
17.880852329911313
17.880951052674664
17.88104930428464
17.881146146002475
17.88124061219662
17.881331709528286
17.881418420921836
17.881499713352135
17.881574553097558
17.88164192526925
17.881700859362628
17.881750458642294
17.881789931394955
17.88181862216482
17.88183603986048
17.88184188013099
17.943469696054443
17.94347463858324
17.94348939709345
17.943513767155977
17.943547416792285
17.943589898204955
17.943640663529198
17.94369908097847
17.943764452913843
17.943836030917268
17.94391303077186
17.943994643236287
17.944080041510787
17.944168386748657
17.94425882994645
17.944350511149793
17.94444255806738
17.94453408366489
17.944624184268697
17.944711939141577
17.944796412345596
17.944876658347667
17.944951730232148
17.945020693696733
17.945082643747593
17.945136725694606
17.945182158557664
17.945218259374634
17.945244467125434
17.94526036396907
17.94526569198637
18.000404660660916
18.000409246067285
18.000422941779707
18.000445568400377
18.00047683352124
18.000516340546238
18.000563600815116
18.000618045971482
18.00067904230918
18.00074590278072
18.00081789956706
18.00089427348113
18.00097424106378
18.001057000596393
18.001141735371647
18.00122761496118
18.00131379628175
18.001399423882848
18.001483630704676
18.001565540013708
18.0016442690834
18.00171893578735
18.001788666876163
18.00185261076388
18.001909951884663
18.001959928129804
18.00200184973633
18.00203511846718
18.002059246225578
18.002073871366946
18.002078771441518
18.050689200668437
18.050693486157126
18.050706288657754
18.050727447918295
18.050756701923568
18.050793693659372
18.0508379806419
18.050889044571527
18.05094630295774
18.05100911886553
18.051076811651967
18.05114866528688
18.051223935092445
18.051301854032552
18.05138163692494
18.051462483168248
18.0515435795555
18.051624102489615
18.05170322062408
18.051780098438957
18.051853901130613
18.051923801766
18.05198898942857
18.052048680916794
18.052102133210084
18.05214865815035
18.05218763792583
18.052218540461784
18.05224093416416
18.05225450068108
18.052259044784556
18.09430561729637
18.094309653428418
18.09432171286074
18.09434165000736
18.09436922622199
18.094404115101494
18.09444591015674
18.09449413251646
18.09454824056643
18.094607638034304
18.094671683343602
18.094739697092578
18.09481096847618
18.094884761711953
18.09496032088386
18.095036873688386
18.095113635474632
18.095189812817818
18.09526460747469
18.095337221079205
18.09540686081729
18.095472746869305
18.095534120332744
18.095590253985137
18.095640463247264
18.09568411874926
18.095720659259626
18.09574960427874
18.09577056595841
18.095783259297118
18.095787509967757
18.131238150477337
18.13124198274764
18.13125343440128
18.131272371032242
18.131298571866818
18.131331734032514
18.131371478900782
18.13141735839594
18.13146886319317
18.13152542959297
18.131586447843013
18.131651268973638
18.131719210950695
18.13178956515373
18.131861601635514
18.13193457356867
18.132007722131874
18.132080281024248
18.13215148132215
18.132220556924352
18.132286750721534
18.13234932215955
18.132407554911346
18.13246076686385
18.132508319908574
18.13254963090282
18.13258418269693
18.132611534674687
18.13263133261966
18.132643317059664
18.132647329621634
18.161473713212096
18.161477383265986
18.161488351125147
18.161506490779022
18.161531594912912
18.161563378450595
18.161601483957924
18.161645486964915
18.16169490313157
18.161749194252888
18.161807775823906
18.161870023393973
18.161935278501865
18.162002855159187
18.162072045377137
18.162142124084728
18.162212354586686
18.162281993715936
18.162350297295276
18.162416526072263
18.162479952189457
18.162539866773564
18.16259558736836
18.162646467302007
18.162691904584765
18.162731351675664
18.16276432511617
18.162790414583732
18.162809291282898
18.162820714968607
18.1628245392548
18.185001539551017
18.185005086152145
18.1850156857257
18.185033218363728
18.185057486556897
18.185088218239745
18.18512507154654
18.185167639453105
18.18521545622344
18.185268002808083
18.185324713871502
18.185384983799086
18.185448172465463
18.185513611701282
18.185580610985944
18.185648462674077
18.185716447827904
18.185783841789377
18.185849920035366
18.185913964422163
18.18597526983084
18.186033151735764
18.186086953434597
18.186136054944875
18.18617988124819
18.186217911197133
18.186249686159258
18.18627481802419
18.18629299656319
18.18630399553346
18.186307677261947
18.20181310825204
18.201816568075213
18.201826908721802
18.20184401442957
18.2018676943619
18.201897685330945
18.201933656131587
18.201975211740937
18.202021899292614
18.202073213077142
18.20212860121081
18.202187471408873
18.202249196636213
18.202313121552265
18.20237856830121
18.202444841929033
18.202511236447965
18.20257704066931
18.202641544300832
18.202704044376652
18.20276385199816
18.202820299868158
18.202872749368023
18.202920599124784
18.202963292809784
18.20300032746725
18.203031261498694
18.20305572197778
18.2030734113306
18.2030841128374
18.203087694742326
18.21190247877783
18.211905887080736
18.21191607398268
18.21193292612782
18.21195625655722
18.211985807251217
18.212021253225796
18.21206220648287
18.212108221717315
18.212158801091533
18.212213400699557
18.212271436205132
18.212332288422648
18.212395309745006
18.21245982998447
18.212525161892774
18.21259060735086
18.212655463343506
18.212719028186896
18.212780608056182
18.212839523772537
18.212895118309266
18.21294676377452
18.212993869783624
18.2130358909986
18.213072335123588
18.213102770511743
18.213126833085706
18.21314423263216
18.213154757962293
18.213158280753625
18.215265993459333
18.21526938467857
18.21527952059707
18.215296288648002
18.215319503144617
18.215348907764373
18.215384179568517
18.21542493287207
18.215470724864147
18.215521060309662
18.21557539794657
18.215633156079875
18.215693718139505
18.215756439101824
18.21582065134607
18.215885670207005
18.21595080020419
18.21601534106142
18.21607859397535
18.216139868173247
18.216198487713786
18.216253798982486
18.216305177642706
18.216352036943327
18.21639383517339
18.216430083548754
18.216460353696025
18.216484284445
18.21650158799819
18.21651205498075
18.216515558195727
