# vtk DataFile Version 2.0
Unstructured Grid Example
ASCII
DATASET UNSTRUCTURED_GRID

POINTS 961 float
0.400000004 0.01999999956 0
0.3866666556 0.01999999956 0
0.3733333348 0.01999999956 0
0.3600000144 0.01999999956 0
0.346666664 0.01999999956 0
0.3333333432 0.01999999956 0
0.3199999928 0.01999999956 0
0.3066666724 0.01999999956 0
0.293333322 0.01999999956 0
0.2800000012 0.01999999956 0
0.2666666804 0.01999999956 0
0.25333333 0.01999999956 0
0.2399999948 0.01999999956 0
0.226666674 0.01999999956 0
0.2133333384 0.01999999956 0
0.2000000028 0.01999999956 0
0.1866666676 0.01999999956 0
0.173333332 0.01999999956 0
0.1599999964 0.01999999956 0
0.1466666608 0.01999999956 0
0.1333333404 0.01999999956 0
0.1199999972 0.01999999956 0
0.1066666692 0.01999999956 0
0.0933333336 0.01999999956 0
0.0799999984 0.01999999956 0
0.06666667 0.01999999956 0
0.0533333348 0.01999999956 0
0.03999999912 0.01999999956 0
0.02666666732 0.01999999956 0
0.01333333364 0.01999999956 0
0.0 0.01999999956 0
0.400000004 0.00666666684 0
0.3866666556 0.00666666684 0
0.3733333348 0.00666666684 0
0.3600000144 0.00666666684 0
0.346666664 0.00666666684 0
0.3333333432 0.00666666684 0
0.3199999928 0.00666666684 0
0.3066666724 0.00666666684 0
0.293333322 0.00666666684 0
0.2800000012 0.00666666684 0
0.2666666804 0.00666666684 0
0.25333333 0.00666666684 0
0.2399999948 0.00666666684 0
0.226666674 0.00666666684 0
0.2133333384 0.00666666684 0
0.2000000028 0.00666666684 0
0.1866666676 0.00666666684 0
0.173333332 0.00666666684 0
0.1599999964 0.00666666684 0
0.1466666608 0.00666666684 0
0.1333333404 0.00666666684 0
0.1199999972 0.00666666684 0
0.1066666692 0.00666666684 0
0.0933333336 0.00666666684 0
0.0799999984 0.00666666684 0
0.06666667 0.00666666684 0
0.0533333348 0.00666666684 0
0.03999999912 0.00666666684 0
0.02666666732 0.00666666684 0
0.01333333364 0.00666666684 0
0.0 0.00666666684 0
0.400000004 -0.00666666684 0
0.3866666556 -0.00666666684 0
0.3733333348 -0.00666666684 0
0.3600000144 -0.00666666684 0
0.346666664 -0.00666666684 0
0.3333333432 -0.00666666684 0
0.3199999928 -0.00666666684 0
0.3066666724 -0.00666666684 0
0.293333322 -0.00666666684 0
0.2800000012 -0.00666666684 0
0.2666666804 -0.00666666684 0
0.25333333 -0.00666666684 0
0.2399999948 -0.00666666684 0
0.226666674 -0.00666666684 0
0.2133333384 -0.00666666684 0
0.2000000028 -0.00666666684 0
0.1866666676 -0.00666666684 0
0.173333332 -0.00666666684 0
0.1599999964 -0.00666666684 0
0.1466666608 -0.00666666684 0
0.1333333404 -0.00666666684 0
0.1199999972 -0.00666666684 0
0.1066666692 -0.00666666684 0
0.0933333336 -0.00666666684 0
0.0799999984 -0.00666666684 0
0.06666667 -0.00666666684 0
0.0533333348 -0.00666666684 0
0.03999999912 -0.00666666684 0
0.02666666732 -0.00666666684 0
0.01333333364 -0.00666666684 0
0.0 -0.00666666684 0
0.400000004 -0.01999999956 0
0.3866666556 -0.01999999956 0
0.3733333348 -0.01999999956 0
0.3600000144 -0.01999999956 0
0.346666664 -0.01999999956 0
0.3333333432 -0.01999999956 0
0.3199999928 -0.01999999956 0
0.3066666724 -0.01999999956 0
0.293333322 -0.01999999956 0
0.2800000012 -0.01999999956 0
0.2666666804 -0.01999999956 0
0.25333333 -0.01999999956 0
0.2399999948 -0.01999999956 0
0.226666674 -0.01999999956 0
0.2133333384 -0.01999999956 0
0.2000000028 -0.01999999956 0
0.1866666676 -0.01999999956 0
0.173333332 -0.01999999956 0
0.1599999964 -0.01999999956 0
0.1466666608 -0.01999999956 0
0.1333333404 -0.01999999956 0
0.1199999972 -0.01999999956 0
0.1066666692 -0.01999999956 0
0.0933333336 -0.01999999956 0
0.0799999984 -0.01999999956 0
0.06666667 -0.01999999956 0
0.0533333348 -0.01999999956 0
0.03999999912 -0.01999999956 0
0.02666666732 -0.01999999956 0
0.01333333364 -0.01999999956 0
0.0 -0.01999999956 0
0.400000004 -0.03333333508 0
0.3866666556 -0.03333333508 0
0.3733333348 -0.03333333508 0
0.3600000144 -0.03333333508 0
0.346666664 -0.03333333508 0
0.3333333432 -0.03333333508 0
0.3199999928 -0.03333333508 0
0.3066666724 -0.03333333508 0
0.293333322 -0.03333333508 0
0.2800000012 -0.03333333508 0
0.2666666804 -0.03333333508 0
0.25333333 -0.03333333508 0
0.2399999948 -0.03333333508 0
0.226666674 -0.03333333508 0
0.2133333384 -0.03333333508 0
0.2000000028 -0.03333333508 0
0.1866666676 -0.03333333508 0
0.173333332 -0.03333333508 0
0.1599999964 -0.03333333508 0
0.1466666608 -0.03333333508 0
0.1333333404 -0.03333333508 0
0.1199999972 -0.03333333508 0
0.1066666692 -0.03333333508 0
0.0933333336 -0.03333333508 0
0.0799999984 -0.03333333508 0
0.06666667 -0.03333333508 0
0.0533333348 -0.03333333508 0
0.03999999912 -0.03333333508 0
0.02666666732 -0.03333333508 0
0.01333333364 -0.03333333508 0
0.0 -0.03333333508 0
0.400000004 -0.0466666668 0
0.3866666556 -0.0466666668 0
0.3733333348 -0.0466666668 0
0.3600000144 -0.0466666668 0
0.346666664 -0.0466666668 0
0.3333333432 -0.0466666668 0
0.3199999928 -0.0466666668 0
0.3066666724 -0.0466666668 0
0.293333322 -0.0466666668 0
0.2800000012 -0.0466666668 0
0.2666666804 -0.0466666668 0
0.25333333 -0.0466666668 0
0.2399999948 -0.0466666668 0
0.226666674 -0.0466666668 0
0.2133333384 -0.0466666668 0
0.2000000028 -0.0466666668 0
0.1866666676 -0.0466666668 0
0.173333332 -0.0466666668 0
0.1599999964 -0.0466666668 0
0.1466666608 -0.0466666668 0
0.1333333404 -0.0466666668 0
0.1199999972 -0.0466666668 0
0.1066666692 -0.0466666668 0
0.0933333336 -0.0466666668 0
0.0799999984 -0.0466666668 0
0.06666667 -0.0466666668 0
0.0533333348 -0.0466666668 0
0.03999999912 -0.0466666668 0
0.02666666732 -0.0466666668 0
0.01333333364 -0.0466666668 0
0.0 -0.0466666668 0
0.400000004 -0.0599999988 0
0.3866666556 -0.0599999988 0
0.3733333348 -0.0599999988 0
0.3600000144 -0.0599999988 0
0.346666664 -0.0599999988 0
0.3333333432 -0.0599999988 0
0.3199999928 -0.0599999988 0
0.3066666724 -0.0599999988 0
0.293333322 -0.0599999988 0
0.2800000012 -0.0599999988 0
0.2666666804 -0.0599999988 0
0.25333333 -0.0599999988 0
0.2399999948 -0.0599999988 0
0.226666674 -0.0599999988 0
0.2133333384 -0.0599999988 0
0.2000000028 -0.0599999988 0
0.1866666676 -0.0599999988 0
0.173333332 -0.0599999988 0
0.1599999964 -0.0599999988 0
0.1466666608 -0.0599999988 0
0.1333333404 -0.0599999988 0
0.1199999972 -0.0599999988 0
0.1066666692 -0.0599999988 0
0.0933333336 -0.0599999988 0
0.0799999984 -0.0599999988 0
0.06666667 -0.0599999988 0
0.0533333348 -0.0599999988 0
0.03999999912 -0.0599999988 0
0.02666666732 -0.0599999988 0
0.01333333364 -0.0599999988 0
0.0 -0.0599999988 0
0.400000004 -0.0733333304 0
0.3866666556 -0.0733333304 0
0.3733333348 -0.0733333304 0
0.3600000144 -0.0733333304 0
0.346666664 -0.0733333304 0
0.3333333432 -0.0733333304 0
0.3199999928 -0.0733333304 0
0.3066666724 -0.0733333304 0
0.293333322 -0.0733333304 0
0.2800000012 -0.0733333304 0
0.2666666804 -0.0733333304 0
0.25333333 -0.0733333304 0
0.2399999948 -0.0733333304 0
0.226666674 -0.0733333304 0
0.2133333384 -0.0733333304 0
0.2000000028 -0.0733333304 0
0.1866666676 -0.0733333304 0
0.173333332 -0.0733333304 0
0.1599999964 -0.0733333304 0
0.1466666608 -0.0733333304 0
0.1333333404 -0.0733333304 0
0.1199999972 -0.0733333304 0
0.1066666692 -0.0733333304 0
0.0933333336 -0.0733333304 0
0.0799999984 -0.0733333304 0
0.06666667 -0.0733333304 0
0.0533333348 -0.0733333304 0
0.03999999912 -0.0733333304 0
0.02666666732 -0.0733333304 0
0.01333333364 -0.0733333304 0
0.0 -0.0733333304 0
0.400000004 -0.086666666 0
0.3866666556 -0.086666666 0
0.3733333348 -0.086666666 0
0.3600000144 -0.086666666 0
0.346666664 -0.086666666 0
0.3333333432 -0.086666666 0
0.3199999928 -0.086666666 0
0.3066666724 -0.086666666 0
0.293333322 -0.086666666 0
0.2800000012 -0.086666666 0
0.2666666804 -0.086666666 0
0.25333333 -0.086666666 0
0.2399999948 -0.086666666 0
0.226666674 -0.086666666 0
0.2133333384 -0.086666666 0
0.2000000028 -0.086666666 0
0.1866666676 -0.086666666 0
0.173333332 -0.086666666 0
0.1599999964 -0.086666666 0
0.1466666608 -0.086666666 0
0.1333333404 -0.086666666 0
0.1199999972 -0.086666666 0
0.1066666692 -0.086666666 0
0.0933333336 -0.086666666 0
0.0799999984 -0.086666666 0
0.06666667 -0.086666666 0
0.0533333348 -0.086666666 0
0.03999999912 -0.086666666 0
0.02666666732 -0.086666666 0
0.01333333364 -0.086666666 0
0.0 -0.086666666 0
0.400000004 -0.1000000016 0
0.3866666556 -0.1000000016 0
0.3733333348 -0.1000000016 0
0.3600000144 -0.1000000016 0
0.346666664 -0.1000000016 0
0.3333333432 -0.1000000016 0
0.3199999928 -0.1000000016 0
0.3066666724 -0.1000000016 0
0.293333322 -0.1000000016 0
0.2800000012 -0.1000000016 0
0.2666666804 -0.1000000016 0
0.25333333 -0.1000000016 0
0.2399999948 -0.1000000016 0
0.226666674 -0.1000000016 0
0.2133333384 -0.1000000016 0
0.2000000028 -0.1000000016 0
0.1866666676 -0.1000000016 0
0.173333332 -0.1000000016 0
0.1599999964 -0.1000000016 0
0.1466666608 -0.1000000016 0
0.1333333404 -0.1000000016 0
0.1199999972 -0.1000000016 0
0.1066666692 -0.1000000016 0
0.0933333336 -0.1000000016 0
0.0799999984 -0.1000000016 0
0.06666667 -0.1000000016 0
0.0533333348 -0.1000000016 0
0.03999999912 -0.1000000016 0
0.02666666732 -0.1000000016 0
0.01333333364 -0.1000000016 0
0.0 -0.1000000016 0
0.400000004 -0.1133333372 0
0.3866666556 -0.1133333372 0
0.3733333348 -0.1133333372 0
0.3600000144 -0.1133333372 0
0.346666664 -0.1133333372 0
0.3333333432 -0.1133333372 0
0.3199999928 -0.1133333372 0
0.3066666724 -0.1133333372 0
0.293333322 -0.1133333372 0
0.2800000012 -0.1133333372 0
0.2666666804 -0.1133333372 0
0.25333333 -0.1133333372 0
0.2399999948 -0.1133333372 0
0.226666674 -0.1133333372 0
0.2133333384 -0.1133333372 0
0.2000000028 -0.1133333372 0
0.1866666676 -0.1133333372 0
0.173333332 -0.1133333372 0
0.1599999964 -0.1133333372 0
0.1466666608 -0.1133333372 0
0.1333333404 -0.1133333372 0
0.1199999972 -0.1133333372 0
0.1066666692 -0.1133333372 0
0.0933333336 -0.1133333372 0
0.0799999984 -0.1133333372 0
0.06666667 -0.1133333372 0
0.0533333348 -0.1133333372 0
0.03999999912 -0.1133333372 0
0.02666666732 -0.1133333372 0
0.01333333364 -0.1133333372 0
0.0 -0.1133333372 0
0.400000004 -0.1266666652 0
0.3866666556 -0.1266666652 0
0.3733333348 -0.1266666652 0
[...]
POINT_DATA 961
SCALARS Temp float 1
LOOKUP_TABLE default
0.7545072401863497
0.7846430837322098
0.8062708982974998
0.8219976431555539
0.8335218834116688
0.8420083774596707
0.8482863733131794
0.8529527431469361
0.856441924491434
0.8590722431410447
0.8610797176760849
0.8626414997133923
0.8638929762811358
0.8649410804245508
0.8658742229402944
0.8667701712278558
0.8677032643517653
0.8687510456253966
0.8700012305465634
0.8715596781928756
0.8735600990393896
0.876176835618255
0.8796411535504697
0.8842643882381385
0.8904690190373058
0.8988327687268356
0.9101514319130358
0.9255307914803029
0.9465266280155181
0.9753967976014496
1.0157229562268426
0.7963591559534591
0.8259093988128066
0.8473049379441795
0.8629456105078187
0.8744302948234373
0.8829005606455897
0.8891736817425268
0.8938408309398916
0.8973334673581568
0.8999683667438803
0.9019807515556096
0.9035473985863066
0.9048035618661328
0.9058561710065394
0.9067937053752735
0.9076940433237018
0.9086316503175731
0.9096841953887084
0.9109395000092064
0.9125034815035997
0.9145098165310112
0.9171326368970873
0.9206026923014067
0.9252302385256133
0.9314356652439545
0.9397927151215516
0.95108953561658
0.9664161035891923
0.9872952901614287
1.0158711410619783
1.0552490135464119
2.755817799347523
2.760208446503882
2.772445333468691
2.7837324466797977
2.793067117813778
2.800495257801001
2.8063125437599523
2.8108382111536367
2.8143554376219244
2.8170992567087163
2.8192598229925805
2.820990027172626
2.822413750486998
2.8236335856932566
2.8247377086372425
2.825806022698835
2.8269158735219326
2.8281476536992507
2.829590600177817
2.831349144535393
2.833550170580134
2.8363514194423227
2.839951186726077
2.844598930271622
2.8506051307862506
2.858345345671113
2.868243907655546
2.8806939355444934
2.895755741174569
2.912080892909443
2.9179417888892916
4.690842143040634
4.693238458123474
4.699120211679529
4.706470265712678
4.713440240541707
4.719484273772959
4.724513578080645
4.728612590073807
4.731921032358254
4.734586175118594
4.736744633654916
4.738516927789978
4.740007710573329
4.741308436706676
4.7425009790970964
4.74366159521778
4.744865034048304
4.746188722887236
4.747717067572214
4.749545877392594
4.751786820241678
4.754571597371426
4.758054922765048
4.762414445322801
4.76784317464635
4.774524838539072
4.782570023696528
4.791858371928689
4.801658908533692
4.809503927381887
4.812700088663482
6.620137047186809
6.621412643652892
6.624860207828172
6.629528602472392
6.634500929607301
6.639174156727126
6.643300020513017
6.646819826588764
6.649767255026486
6.652215693177144
6.654251667660149
6.655962205568313
6.657429673678509
6.658730590761792
6.659936495523479
6.661115891832767
6.662336749564747
6.663669238772258
6.66518848906282
6.666977130389496
6.669127220622032
6.671740859184975
6.674928094425677
6.678799692148587
6.683449971497037
6.688921025779209
6.695132295430013
6.7017504830834405
6.707969270519143
6.712563761036147
6.7142640447345725
8.545965758500085
8.546742980732166
8.54889367860145
8.551973302712867
8.555467326019205
8.558965274782569
8.5622164517488
8.565107680740487
8.567612727673458
8.56975412561456
8.571578992511466
8.573144980339968
8.574512817751451
8.575742915968439
8.576894367074381
8.57802533452138
8.579194207518672
8.580461065231223
8.581889101506173
8.583545621146325
8.585502067908584
8.587832263082742
8.59060745696091
8.593886088296246
8.597694774907193
8.601995766180687
8.606635881864548
8.611278800810371
8.6153753819697
8.61823798407634
8.619272746431761
10.469451894973648
10.469947204266644
10.47134372355762
10.473408524026702
10.475850416041613
10.478403416730576
10.480874591392316
10.483150800572803
10.485183118153515
10.486965860851239
10.488519545456622
10.489879086934032
10.491086472533937
10.492186685473003
10.493225774240463
10.494250276731522
10.495307424094447
10.496445658019018
10.49771507268613
10.499167356100928
10.500854687622258
10.502826853287676
10.505125481437384
10.507774040771723
10.510761882291435
10.514021275715905
10.51739934079407
10.520637084612462
10.523378414380488
10.525233908974943
10.525892232206187
12.391088921673337
12.391408278529642
12.392318700531522
12.393693048579388
12.395363384421387
12.397163730970885
12.398960144656959
12.400662454383061
12.40222178574808
12.403621367816243
12.404866474825196
12.405976152639344
12.406977375161777
12.407901361216819
12.40878149661571
12.40965235089749
12.410549352573511
12.411508728335862
12.412567358494533
12.413762172165447
12.415128631330397
12.416697752960815
12.418490961382897
12.420512128191701
12.422736376542279
12.425096495371799
12.42747060928034
12.429678749497171
12.431498515897417
12.432705148009834
12.433128595575749
14.311120394693326
14.311317886550032
14.311885058701694
14.31275317805143
14.313828317356705
14.315012841626384
14.316222607119938
14.317395990133562
14.31849532480946
14.319503519708109
14.320418938906474
14.321250445184603
14.322013494432467
14.322727436162845
14.32341382340179
14.324095462079084
14.324795923630294
14.325539242519978
14.326349543452942
14.327250323682023
14.328263078706328
14.329404928145205
14.330684865593012
14.332098445150816
14.333621065350885
14.33520102947506
14.336754990179566
14.338169783248631
14.339314471062526
14.340063250799618
14.340324128857127
16.229663557822704
16.229767345038074
16.23006711147058
16.230531019830053
16.23111461436837
16.23177018507749
16.232454824490517
16.233135311100895
16.233789662570704
16.234406236200247
16.234981657250568
16.23551851297676
16.23602336769622
16.236505288049237
16.236974843781745
16.237443479238788
16.237923125739552
16.23842590851455
16.23896381135432
16.239548151976127
16.24018870847501
16.240892337843597
16.24166093718695
16.24248874931488
16.243359235902002
16.24424225695951
16.24509285215519
16.24585326800956
16.246459472514836
16.246851882543716
16.246987860109563
18.146773293565154
18.146796108467566
18.14686321321583
18.146970832091917
18.147113407034077
18.147284463087658
18.14747746348803
18.14768647191665
18.147906557928795
18.148133945860916
18.148365986445814
18.148601015384212
18.148838165730364
18.149077177009584
18.149318214430366
18.149561704270873
18.149808184598477
18.15005815859134
18.15031194069602
18.150569484295307
18.150830181690086
18.15109263552821
18.151354404649066
18.151611760752363
18.151859500185537
18.152090901452937
18.15229792786468
18.15247176197045
18.15260369254976
18.15268625167167
18.152714370669052
18.25373332724716
18.25375237552753
18.253808608093845
18.253899430561784
18.25402095338316
18.254168521122253
18.254337264769468
18.25452256491817
18.254720377021663
18.254927396400646
18.255141099485627
18.255359689610163
18.255581989735063
18.255807314355863
18.256035332937067
18.25626593411823
18.256499094989042
18.256734748847034
18.25697264777897
18.25721221520798
18.25745238591256
18.257691438729847
18.25792682929259
18.258155056204956
18.258371591560035
18.258570933843707
18.258746833148017
18.25889272057233
18.25900232988302
18.259070431594427
18.259093540458018
18.360578297658762
18.360594543485828
18.360642639147727
18.360720745720087
18.360826064961802
18.360955172793016
18.361104382637
18.361270068337934
18.361448913550014
18.361638061206648
18.361835180011337
18.362038456743257
18.36224654002741
18.362458458053066
18.362673519206503
18.36289120494479
18.363111061551937
18.36333258805098
18.363555120691903
18.363777713425
18.363999015772006
18.364217155775812
18.36442963557984
18.364633266976682
18.36482416553369
18.36499783899385
18.365149392511952
18.365273858360673
18.365366630722573
18.36542394848789
18.365443341628644
18.467313508868056
18.467327624930498
18.467369507699207
18.467437815338926
18.4675304804407
18.46764492572835
18.467778307492754
18.467927741514597
18.46809049041559
18.468264088201494
18.468446410478702
18.46863568928015
18.46883048769136
18.469029649427263
18.46923222882387
18.46943740935501
18.469644417955205
18.46985243453946
18.47006049949718
18.47026742100578
18.470471685451322
18.47067137899662
18.470864126312435
18.471047067724086
18.47121688425456
18.471369892211357
18.47150221561145
18.471610034273446
18.471689889395183
18.471739007057884
18.47175558759897
18.573942904094395
18.573955374809884
18.573992439554104
18.574053091386457
18.574135762195127
18.574238465510277
18.57435896251674
18.57449492120782
18.57464405603339
18.574804227479284
18.574973506706264
18.575150199623625
18.575332839389215
18.575520157486224
18.57571103601156
18.575904447740925
18.576099390987366
18.576294819591023
18.576489571916795
18.576682301826484
18.576871415496115
18.577055021441904
18.577230897817643
18.57739649322116
18.57754896440936
18.577685264169023
18.57780228061204
18.577897022453453
18.577966835610166
18.57800962393992
18.57802404146527
18.680469420697186
18.680480605484277
18.680513893055778
18.680568506509772
18.68064322456633
18.680736478119215
18.680846465411147
18.680971265144567
18.68110894052851
18.68125761724736
18.681415539383135
18.68158109586122
18.681752822874564
18.68192938920855
18.682109565070206
18.682292179545396
18.682476073039
18.682660045276037
18.682842803026354
18.683022910803338
18.683198748268644
18.683368480640823
18.683530044386963
18.683681160665174
18.68381937614243
18.68394213957947
18.684046912254367
18.6841313062993
18.684193239881015
18.684231090500347
18.68424382556144
18.783396585480933
18.783406742835467
18.783437004286217
18.783486753987336
18.783555015760438
18.78364051961985
18.783741783018876
18.78385719203813
18.783985079236405
18.784123784115025
18.78427170005437
18.78442729985614
18.784589143389336
18.784755872242886
18.784926190635225
18.78509883651198
18.78527254840655
18.78544602850614
18.785617905904235
18.785786703104392
18.78595080902531
18.7861084636945
18.786257755488307
18.786396640677193
18.786522982700482
18.786634616821182
18.78672943698431
18.786805499537948
18.786861135745237
18.78689506007657
18.786906460739388
18.879207003484858
18.87921631661017
18.879244085315598
18.87928980872814
18.87935268706105
18.879431668256977
18.87952550623983
18.879632819814738
18.87975215135757
18.879882013592045
18.88002092845785
18.880167450406855
18.880320176570272
18.88047774745671
18.880638836581713
18.880802132030105
18.88096631476521
18.881130033829415
18.881291882006785
18.88145037460507
18.881603934012027
18.881750884211236
18.881889455069
18.882017804241286
18.88213405293659
18.88223633966182
18.88232288847692
18.882392087309547
18.88244257057033
18.8824732969187
18.8824836132409
18.967878243193976
18.967886853335436
18.967912541947346
18.967954891512726
18.96801323103209
18.968086669279312
18.968174137266043
18.968274431478854
18.968386258593558
18.96850827177869
18.968639102800523
18.96877738272952
18.968921753138098
18.969070870687283
18.969223402999752
18.969378018116796
18.969533371675816
18.969688091612433
18.96984076346962
18.969989918495035
18.970134026596178
18.97027149749899
18.97040068919174
18.970519930163352
18.970627551101245
18.97072192933978
18.97080154271478
18.97086502926121
18.97091124871161
18.97093933926587
18.97094876364513
19.049397286793933
19.04940530527928
19.049429240082798
19.049468734996072
19.04952321433662
19.04959190705975
19.049673878259178
19.049768061328994
19.049873292491284
19.04998833919143
19.050111926749942
19.05024275660499
19.050379517753086
19.05052089381475
19.050665563345092
19.050812195163005
19.050959442260762
19.051105933778015
19.051250267641883
19.051391005592844
19.051526672147975
19.051655760174157
19.051776741664803
19.051888089284603
19.05198830413776
19.05207595259342
19.052149709119092
19.05220840232593
19.052251061432333
19.05227695840999
19.052285641746955
19.123759676077437
19.123767192733425
19.123789637776834
19.123826700695556
19.123877877255275
19.12394248728919
19.124019698508754
19.124108550790638
19.12420798327367
19.12431685683368
19.12443397644123
19.12455810725403
19.1246879859109
19.12482232915645
19.124959837280983
19.125099193762537
19.12523906419819
19.125378093737197
19.12551490518599
19.125648099096974
19.125776256962762
19.12589794966156
19.126011749435456
19.126116250290377
19.126210092264905
19.126291992148637
19.12636077793472
19.126415424832274
19.126455090944894
19.12647914911689
19.126487212152426
19.190968417448765
19.1909755065793
19.190996680880424
19.191031664310632
19.191080006812758
19.191141097688494
19.191214183970118
19.19129838908052
19.191392734502934
19.191496157848142
19.191607531881345
19.191725678825478
19.19184938133735
19.19197739209129
19.19210843940576
19.19224123001402
19.192374451682284
19.19250677467144
19.19263685384561
19.19276333239984
19.192884847984605
19.19300004296875
19.193107576932757
19.193206145789343
19.193294503074366
19.193371485843766
19.193436042775538
19.193487262790644
19.193524402941897
19.193546912935325
19.193554454339953
19.251033083614534
19.25103980829969
19.25105989826125
19.251093103723996
19.251139016112184
19.251197078315116
19.25126659918565
19.25134676816407
19.251436672979022
19.251535314446095
19.2516416229372
19.251754471237412
19.251872685149067
19.25199505364382
19.252120335999848
19.252247266814084
19.25237456128588
19.252500919604348
19.25262503194212
19.25274558475534
19.252861268900396
19.252970791002596
19.253072886061357
19.253166335323893
19.25324998511298
19.253322768954668
19.253383730879698
19.253432048585243
19.253467055666118
19.253488260884303
19.253495363111423
19.303967604961745
19.30397402018594
19.303993188654864
19.304024880753097
19.304068719882867
19.304124190528288
19.304190649981845
19.30426734006643
19.304353401932016
19.30444788843927
19.30454977867995
19.304657989687023
19.304771386671845
19.30488879349282
19.30500900082115
19.305130772737638
19.30525285391406
19.305373976091666
19.305492865120364
19.305608249045527
19.30571886755047
19.305823483958484
19.305920897727045
19.306009961188998
19.30608959638331
19.306158814259565
19.306216734358316
19.306262603935956
19.306295816069678
19.306315925139703
19.306322658718607
19.34978971365012
19.34979586858506
19.349814261479317
19.349844678234252
19.34988676696346
19.349940044493554
19.35000390610265
19.350077635155554
19.35016041577835
19.350251343465317
19.350349438125363
19.350453654896796
19.350562894051784
19.35067601162196
19.350791828252078
19.350909136900597
19.351026711349746
19.351143314154687
19.351257705107933
19.35136865054381
19.351474933640567
19.351575366750982
19.351668803675814
19.351754155422803
19.351830405445344
19.351896626598485
19.35195199809836
19.35199582166463
19.352027536612262
19.35204673259451
19.352053159299015
19.388518416759286
19.38852435644434
19.38854210764001
19.388571468144114
19.38861210508272
19.38866356030226
19.388725258685554
19.3887965162921
19.388876551489624
19.388964494264215
19.389059398162775
19.389160250420122
19.389265981577264
19.38937547616695
19.3894875820173
19.38960111870776
19.389714886992763
19.389827677766228
19.389938281500292
19.390045498361946
19.39014814905489
19.390245087290236
19.390335211800956
19.39041748128046
19.390490928374515
19.39055467492747
19.390607946912855
19.39065008838386
19.39068057437211
19.39069902165302
19.390705196867735
19.420173201229673
19.42017896780225
19.420196202717005
19.420224712760415
19.42026417946738
19.42031416373402
19.420374113126222
19.420443368960804
19.420521176329448
19.420606692475328
19.42069899792307
19.42079710608867
19.42089997266339
19.42100650630439
19.421115578224573
19.42122603115456
19.421336689380237
19.421446368392964
19.42155388497907
19.42165806786434
19.421757768881903
19.42185187547455
19.421939322457177
19.42201910629587
19.42209029814724
19.42215205782863
19.4222036472593
19.42224444282099
19.422273946678832
19.422291796133354
19.422297770623096
19.444772201347586
19.44477783494799
19.444794673178507
19.444822529398426
19.444861095704464
19.44490994700928
19.444968547653847
19.44503625775736
19.445112342467663
19.445195979685018
19.445286270612705
19.445382248991884
19.445482890303705
19.445587122439584
19.445693835466326
19.445801890916567
19.44591013222596
19.446017394831934
19.44612251668406
19.44622434922011
19.44632176872141
19.446413688793335
19.446499071910775
19.44657694319335
19.44664640274496
19.44670663870349
19.446756939622077
19.44679670570885
19.446825459042994
19.446842851942378
19.446848673189763
19.462330825767765
19.462336365204692
19.462352922467705
19.462380315404186
19.462418243336277
19.46246629079288
19.46252393366785
19.46259054509382
19.46266540418347
19.462747703324084
19.46283655834065
19.462931017476897
19.463030070468385
19.46313265918573
19.46323768750145
19.463344030781865
19.463450546570193
19.463556084962537
19.463659499375655
19.463759657719837
19.46385545385515
19.463945820033523
19.464029738279372
19.4641062538104
19.464174486898855
19.4642336453005
19.464283035928162
19.464322075349106
19.464350299272475
19.464367370270722
19.46437308349741
19.47286103921666
19.472866522460027
19.472882912029114
19.47291002838624
19.4729475750686
19.472995142225557
19.47305221252084
19.473118166737663
19.47319229223162
19.47327378998123
19.473361784529118
19.473455332815952
19.47355343317648
19.473655035961972
19.47375905345896
19.47386436948937
19.473969850225874
19.474074354717576
19.47417674579569
19.474275901349124
19.474370725828713
19.47446016265765
19.474543205509626
19.474618911519478
19.474686412865683
19.47474492884112
19.474793777121093
19.47483238383716
19.47486029265051
19.47487717210701
19.4748828210675
19.476370252499404
19.476375717060254
19.476392050873052
19.47641907525923
19.47645649514164
19.47650390251917
19.47656078228605
19.47662651775044
19.4767003989936
19.476781629841636
19.47686933773423
19.476962582510346
19.477060365378815
19.47716163953301
19.4772653200854
19.47737029370176
19.47747542945804
19.47757958941333
19.477681639558725
19.477780461124738
19.477874962099428
19.477964089626894
19.478046841250848
19.478122278055377
19.47818953615603
19.47824783865355
19.47829650676968
19.47833496978345
19.478362773970183
19.478379589837903
19.478385217464634
