# vtk DataFile Version 2.0
Unstructured Grid Example
ASCII
DATASET UNSTRUCTURED_GRID

POINTS 961 float
0.400000004 0.01999999956 0
0.3866666556 0.01999999956 0
0.3733333348 0.01999999956 0
0.3600000144 0.01999999956 0
0.346666664 0.01999999956 0
0.3333333432 0.01999999956 0
0.3199999928 0.01999999956 0
0.3066666724 0.01999999956 0
0.293333322 0.01999999956 0
0.2800000012 0.01999999956 0
0.2666666804 0.01999999956 0
0.25333333 0.01999999956 0
0.2399999948 0.01999999956 0
0.226666674 0.01999999956 0
0.2133333384 0.01999999956 0
0.2000000028 0.01999999956 0
0.1866666676 0.01999999956 0
0.173333332 0.01999999956 0
0.1599999964 0.01999999956 0
0.1466666608 0.01999999956 0
0.1333333404 0.01999999956 0
0.1199999972 0.01999999956 0
0.1066666692 0.01999999956 0
0.0933333336 0.01999999956 0
0.0799999984 0.01999999956 0
0.06666667 0.01999999956 0
0.0533333348 0.01999999956 0
0.03999999912 0.01999999956 0
0.02666666732 0.01999999956 0
0.01333333364 0.01999999956 0
0.0 0.01999999956 0
0.400000004 0.00666666684 0
0.3866666556 0.00666666684 0
0.3733333348 0.00666666684 0
0.3600000144 0.00666666684 0
0.346666664 0.00666666684 0
0.3333333432 0.00666666684 0
0.3199999928 0.00666666684 0
0.3066666724 0.00666666684 0
0.293333322 0.00666666684 0
0.2800000012 0.00666666684 0
0.2666666804 0.00666666684 0
0.25333333 0.00666666684 0
0.2399999948 0.00666666684 0
0.226666674 0.00666666684 0
0.2133333384 0.00666666684 0
0.2000000028 0.00666666684 0
0.1866666676 0.00666666684 0
0.173333332 0.00666666684 0
0.1599999964 0.00666666684 0
0.1466666608 0.00666666684 0
0.1333333404 0.00666666684 0
0.1199999972 0.00666666684 0
0.1066666692 0.00666666684 0
0.0933333336 0.00666666684 0
0.0799999984 0.00666666684 0
0.06666667 0.00666666684 0
0.0533333348 0.00666666684 0
0.03999999912 0.00666666684 0
0.02666666732 0.00666666684 0
0.01333333364 0.00666666684 0
0.0 0.00666666684 0
0.400000004 -0.00666666684 0
0.3866666556 -0.00666666684 0
0.3733333348 -0.00666666684 0
0.3600000144 -0.00666666684 0
0.346666664 -0.00666666684 0
0.3333333432 -0.00666666684 0
0.3199999928 -0.00666666684 0
0.3066666724 -0.00666666684 0
0.293333322 -0.00666666684 0
0.2800000012 -0.00666666684 0
0.2666666804 -0.00666666684 0
0.25333333 -0.00666666684 0
0.2399999948 -0.00666666684 0
0.226666674 -0.00666666684 0
0.2133333384 -0.00666666684 0
0.2000000028 -0.00666666684 0
0.1866666676 -0.00666666684 0
0.173333332 -0.00666666684 0
0.1599999964 -0.00666666684 0
0.1466666608 -0.00666666684 0
0.1333333404 -0.00666666684 0
0.1199999972 -0.00666666684 0
0.1066666692 -0.00666666684 0
0.0933333336 -0.00666666684 0
0.0799999984 -0.00666666684 0
0.06666667 -0.00666666684 0
0.0533333348 -0.00666666684 0
0.03999999912 -0.00666666684 0
0.02666666732 -0.00666666684 0
0.01333333364 -0.00666666684 0
0.0 -0.00666666684 0
0.400000004 -0.01999999956 0
0.3866666556 -0.01999999956 0
0.3733333348 -0.01999999956 0
0.3600000144 -0.01999999956 0
0.346666664 -0.01999999956 0
0.3333333432 -0.01999999956 0
0.3199999928 -0.01999999956 0
0.3066666724 -0.01999999956 0
0.293333322 -0.01999999956 0
0.2800000012 -0.01999999956 0
0.2666666804 -0.01999999956 0
0.25333333 -0.01999999956 0
0.2399999948 -0.01999999956 0
0.226666674 -0.01999999956 0
0.2133333384 -0.01999999956 0
0.2000000028 -0.01999999956 0
0.1866666676 -0.01999999956 0
0.173333332 -0.01999999956 0
0.1599999964 -0.01999999956 0
0.1466666608 -0.01999999956 0
0.1333333404 -0.01999999956 0
0.1199999972 -0.01999999956 0
0.1066666692 -0.01999999956 0
0.0933333336 -0.01999999956 0
0.0799999984 -0.01999999956 0
0.06666667 -0.01999999956 0
0.0533333348 -0.01999999956 0
0.03999999912 -0.01999999956 0
0.02666666732 -0.01999999956 0
0.01333333364 -0.01999999956 0
0.0 -0.01999999956 0
0.400000004 -0.03333333508 0
0.3866666556 -0.03333333508 0
0.3733333348 -0.03333333508 0
0.3600000144 -0.03333333508 0
0.346666664 -0.03333333508 0
0.3333333432 -0.03333333508 0
0.3199999928 -0.03333333508 0
0.3066666724 -0.03333333508 0
0.293333322 -0.03333333508 0
0.2800000012 -0.03333333508 0
0.2666666804 -0.03333333508 0
0.25333333 -0.03333333508 0
0.2399999948 -0.03333333508 0
0.226666674 -0.03333333508 0
0.2133333384 -0.03333333508 0
0.2000000028 -0.03333333508 0
0.1866666676 -0.03333333508 0
0.173333332 -0.03333333508 0
0.1599999964 -0.03333333508 0
0.1466666608 -0.03333333508 0
0.1333333404 -0.03333333508 0
0.1199999972 -0.03333333508 0
0.1066666692 -0.03333333508 0
0.0933333336 -0.03333333508 0
0.0799999984 -0.03333333508 0
0.06666667 -0.03333333508 0
0.0533333348 -0.03333333508 0
0.03999999912 -0.03333333508 0
0.02666666732 -0.03333333508 0
0.01333333364 -0.03333333508 0
0.0 -0.03333333508 0
0.400000004 -0.0466666668 0
0.3866666556 -0.0466666668 0
0.3733333348 -0.0466666668 0
0.3600000144 -0.0466666668 0
0.346666664 -0.0466666668 0
0.3333333432 -0.0466666668 0
0.3199999928 -0.0466666668 0
0.3066666724 -0.0466666668 0
0.293333322 -0.0466666668 0
0.2800000012 -0.0466666668 0
0.2666666804 -0.0466666668 0
0.25333333 -0.0466666668 0
0.2399999948 -0.0466666668 0
0.226666674 -0.0466666668 0
0.2133333384 -0.0466666668 0
0.2000000028 -0.0466666668 0
0.1866666676 -0.0466666668 0
0.173333332 -0.0466666668 0
0.1599999964 -0.0466666668 0
0.1466666608 -0.0466666668 0
0.1333333404 -0.0466666668 0
0.1199999972 -0.0466666668 0
0.1066666692 -0.0466666668 0
0.0933333336 -0.0466666668 0
0.0799999984 -0.0466666668 0
0.06666667 -0.0466666668 0
0.0533333348 -0.0466666668 0
0.03999999912 -0.0466666668 0
0.02666666732 -0.0466666668 0
0.01333333364 -0.0466666668 0
0.0 -0.0466666668 0
0.400000004 -0.0599999988 0
0.3866666556 -0.0599999988 0
0.3733333348 -0.0599999988 0
0.3600000144 -0.0599999988 0
0.346666664 -0.0599999988 0
0.3333333432 -0.0599999988 0
0.3199999928 -0.0599999988 0
0.3066666724 -0.0599999988 0
0.293333322 -0.0599999988 0
0.2800000012 -0.0599999988 0
0.2666666804 -0.0599999988 0
0.25333333 -0.0599999988 0
0.2399999948 -0.0599999988 0
0.226666674 -0.0599999988 0
0.2133333384 -0.0599999988 0
0.2000000028 -0.0599999988 0
0.1866666676 -0.0599999988 0
0.173333332 -0.0599999988 0
0.1599999964 -0.0599999988 0
0.1466666608 -0.0599999988 0
0.1333333404 -0.0599999988 0
0.1199999972 -0.0599999988 0
0.1066666692 -0.0599999988 0
0.0933333336 -0.0599999988 0
0.0799999984 -0.0599999988 0
0.06666667 -0.0599999988 0
0.0533333348 -0.0599999988 0
0.03999999912 -0.0599999988 0
0.02666666732 -0.0599999988 0
0.01333333364 -0.0599999988 0
0.0 -0.0599999988 0
0.400000004 -0.0733333304 0
0.3866666556 -0.0733333304 0
0.3733333348 -0.0733333304 0
0.3600000144 -0.0733333304 0
0.346666664 -0.0733333304 0
0.3333333432 -0.0733333304 0
0.3199999928 -0.0733333304 0
0.3066666724 -0.0733333304 0
0.293333322 -0.0733333304 0
0.2800000012 -0.0733333304 0
0.2666666804 -0.0733333304 0
0.25333333 -0.0733333304 0
0.2399999948 -0.0733333304 0
0.226666674 -0.0733333304 0
0.2133333384 -0.0733333304 0
0.2000000028 -0.0733333304 0
0.1866666676 -0.0733333304 0
0.173333332 -0.0733333304 0
0.1599999964 -0.0733333304 0
0.1466666608 -0.0733333304 0
0.1333333404 -0.0733333304 0
0.1199999972 -0.0733333304 0
0.1066666692 -0.0733333304 0
0.0933333336 -0.0733333304 0
0.0799999984 -0.0733333304 0
0.06666667 -0.0733333304 0
0.0533333348 -0.0733333304 0
0.03999999912 -0.0733333304 0
0.02666666732 -0.0733333304 0
0.01333333364 -0.0733333304 0
0.0 -0.0733333304 0
0.400000004 -0.086666666 0
0.3866666556 -0.086666666 0
0.3733333348 -0.086666666 0
0.3600000144 -0.086666666 0
0.346666664 -0.086666666 0
0.3333333432 -0.086666666 0
0.3199999928 -0.086666666 0
0.3066666724 -0.086666666 0
0.293333322 -0.086666666 0
0.2800000012 -0.086666666 0
0.2666666804 -0.086666666 0
0.25333333 -0.086666666 0
0.2399999948 -0.086666666 0
0.226666674 -0.086666666 0
0.2133333384 -0.086666666 0
0.2000000028 -0.086666666 0
0.1866666676 -0.086666666 0
0.173333332 -0.086666666 0
0.1599999964 -0.086666666 0
0.1466666608 -0.086666666 0
0.1333333404 -0.086666666 0
0.1199999972 -0.086666666 0
0.1066666692 -0.086666666 0
0.0933333336 -0.086666666 0
0.0799999984 -0.086666666 0
0.06666667 -0.086666666 0
0.0533333348 -0.086666666 0
0.03999999912 -0.086666666 0
0.02666666732 -0.086666666 0
0.01333333364 -0.086666666 0
0.0 -0.086666666 0
0.400000004 -0.1000000016 0
0.3866666556 -0.1000000016 0
0.3733333348 -0.1000000016 0
0.3600000144 -0.1000000016 0
0.346666664 -0.1000000016 0
0.3333333432 -0.1000000016 0
0.3199999928 -0.1000000016 0
0.3066666724 -0.1000000016 0
0.293333322 -0.1000000016 0
0.2800000012 -0.1000000016 0
0.2666666804 -0.1000000016 0
0.25333333 -0.1000000016 0
0.2399999948 -0.1000000016 0
0.226666674 -0.1000000016 0
0.2133333384 -0.1000000016 0
0.2000000028 -0.1000000016 0
0.1866666676 -0.1000000016 0
0.173333332 -0.1000000016 0
0.1599999964 -0.1000000016 0
0.1466666608 -0.1000000016 0
0.1333333404 -0.1000000016 0
0.1199999972 -0.1000000016 0
0.1066666692 -0.1000000016 0
0.0933333336 -0.1000000016 0
0.0799999984 -0.1000000016 0
0.06666667 -0.1000000016 0
0.0533333348 -0.1000000016 0
0.03999999912 -0.1000000016 0
0.02666666732 -0.1000000016 0
0.01333333364 -0.1000000016 0
0.0 -0.1000000016 0
0.400000004 -0.1133333372 0
0.3866666556 -0.1133333372 0
0.3733333348 -0.1133333372 0
0.3600000144 -0.1133333372 0
0.346666664 -0.1133333372 0
0.3333333432 -0.1133333372 0
0.3199999928 -0.1133333372 0
0.3066666724 -0.1133333372 0
0.293333322 -0.1133333372 0
0.2800000012 -0.1133333372 0
0.2666666804 -0.1133333372 0
0.25333333 -0.1133333372 0
0.2399999948 -0.1133333372 0
0.226666674 -0.1133333372 0
0.2133333384 -0.1133333372 0
0.2000000028 -0.1133333372 0
0.1866666676 -0.1133333372 0
0.173333332 -0.1133333372 0
0.1599999964 -0.1133333372 0
0.1466666608 -0.1133333372 0
0.1333333404 -0.1133333372 0
0.1199999972 -0.1133333372 0
0.1066666692 -0.1133333372 0
0.0933333336 -0.1133333372 0
0.0799999984 -0.1133333372 0
0.06666667 -0.1133333372 0
0.0533333348 -0.1133333372 0
0.03999999912 -0.1133333372 0
0.02666666732 -0.1133333372 0
0.01333333364 -0.1133333372 0
0.0 -0.1133333372 0
0.400000004 -0.1266666652 0
0.3866666556 -0.1266666652 0
0.3733333348 -0.1266666652 0
[...]
POINT_DATA 961
SCALARS Temp float 1
LOOKUP_TABLE default
0.7083817931882417
0.7366747772699542
0.7569788310350618
0.7717418710119438
0.7825588742572649
0.7905235520744602
0.7964145586811071
0.8007923394293851
0.8040648090891247
0.8065308515640263
0.8084120635383744
0.8098747656054377
0.8110460616543348
0.8120263373205072
0.8128985855660343
0.8137358045030811
0.8146077717091009
0.8155872715746338
0.8167566374770051
0.8182152361525943
0.8200885825564243
0.822540340029528
0.8257876169361857
0.8301227005833915
0.8359422354488873
0.8437886322897928
0.8544090640252797
0.8688417754888422
0.8885475504257376
0.9156464093314334
0.9535012384849301
0.747683589616736
0.7754268575154001
0.7955128301004979
0.8101950583736904
0.8209749158962785
0.8289243437711785
0.8348107541882029
0.8391892420409295
0.8424649263052628
0.8449352361621367
0.8468210214209649
0.8482882513463733
0.8494639055424408
0.8504483670060748
0.8513246936679973
0.8521659884044036
0.853042148070217
0.8540260757036673
0.8552002048081695
0.8566639574583799
0.8585428175431132
0.8610002512866117
0.8642528834606107
0.8685919886338962
0.8744122503678659
0.8822523438483808
0.8928522639337703
0.9072354178678688
0.9268316970068042
0.9536542661196252
0.9906190351926503
2.5877571212173605
2.5918788035324294
2.6033660439136277
2.613960696951548
2.6227215753285447
2.629691926848299
2.6351494606514363
2.639393975488556
2.6426913955989533
2.6452624294587985
2.6472856397712863
2.648904596301171
2.650235627962001
2.6513750732533294
2.6524057327377406
2.6534026385166025
2.654438419988378
2.65558856623151
2.656936869357051
2.658581387098054
2.6606412575856497
2.6632645919569775
2.666637580943761
2.6709944575062923
2.6766267600138827
2.6838871465810783
2.6931741038690182
2.7048568721127793
2.7189923408487675
2.734315031767929
2.7398160422632607
4.404898733928874
4.407147979486628
4.412668473179634
4.419566490307517
4.426106771240406
4.431776945810747
4.436493760144593
4.440336577794411
4.443436654302831
4.445932320628202
4.447951896355171
4.4496085841138235
4.451000686097791
4.452214110517049
4.453325767875976
4.454407295424709
4.45552891335315
4.456763355970089
4.4581899094308
4.459898566753101
4.46199421162689
4.464600539526746
4.467862857554326
4.471948015173076
4.477037298992513
4.483303305832865
4.490850001890232
4.499564591001167
4.508761100230179
4.5161232215260405
4.519122793089593
6.21667355663056
6.217870540616866
6.221105475723537
6.225485438351416
6.230149677354352
6.234532128412599
6.238399806394701
6.241697699695238
6.2444575169225915
6.246748240624803
6.248651184847745
6.250248130433966
6.251616480896697
6.252828148048728
6.253950367398516
6.255047524818002
6.256183504646862
6.257424256906031
6.258840388278019
6.260509548107103
6.262518239089305
6.264962394902632
6.267945418027325
6.271571393911145
6.275928981573578
6.281057829478865
6.286882465119194
6.293090178202968
6.298924223176504
6.303234906101571
6.304830232361526
8.025210067360907
8.025939073292696
8.027956204031874
8.030844139079745
8.034119882867909
8.037398146524215
8.040443656275686
8.043150253884551
8.045493407496782
8.047494370142369
8.049197475951736
8.050656948819757
8.051929901452034
8.053073148943367
8.054142268427755
8.05519196575777
8.056277159182683
8.057454353977649
8.058782980126397
8.060326327981295
8.062151575236973
8.064328134345509
8.066923008554255
8.069991180150272
8.073557767229087
8.077587471089327
8.081936642562564
8.086289715061191
8.090131334755924
8.092816112088736
8.09378665384366
9.83156664984384
9.832030895115265
9.83333970351801
9.8352744299595
9.837561753820445
9.839952037605357
9.842264237827331
9.844392235564982
9.846290204470606
9.847952921133876
9.849399763465733
9.850663630078419
9.851784062134238
9.852803415865969
9.853765049580685
9.85471278264975
9.855691086373996
9.856745569231611
9.857923391497275
9.859273210057278
9.86084414356857
9.862683064713467
9.864829189522665
9.867304688519134
9.87009970660898
9.873150805787413
9.876314614028226
9.879348142455237
9.881917238405148
9.883656439679946
9.88427355079571
11.636209886436
11.636508845112315
11.637360999223175
11.638647022147708
11.640209305565957
11.641892101739018
11.643569753332482
11.645157711540818
11.646610209068479
11.647911627437873
11.649067052284789
11.650094504806576
11.65101945473327
11.651871361466466
11.652681722352924
11.653483148733455
11.654309060060081
11.65519362595049
11.656171629673524
11.657277899684859
11.658545885998212
11.66000486421271
11.66167510299235
11.663560391054325
11.665637526715349
11.667843563018195
11.670064230503932
11.672130714226375
11.673834350435643
11.67496423557484
11.675360793316857
13.439371529965324
13.439555975032805
13.440085566750488
13.440895812358471
13.441898588698244
13.443002312573288
13.44412808544496
13.445218167856549
13.446237327009968
13.447169658621878
13.448013779287363
13.448778171449742
13.44947751539821
13.450130153372609
13.450756501441358
13.451378155705669
13.452017433194067
13.452697086478018
13.453439952320757
13.454268276617286
13.455202423054583
13.45625864317391
13.457445554990482
13.458759153691384
13.460176505716841
13.461649232362232
13.463099230967893
13.464420392991984
13.465489905408862
13.466189750757803
13.46643362041467
15.241164520577112
15.241260883053224
15.241539097016823
15.24196930977191
15.242509845869495
15.243115997347424
15.243747586047636
15.244373546785285
15.244973383583496
15.245536323623675
15.24605937030915
15.246545136668031
15.24699998015247
15.247432616098711
15.247853177736012
15.248272624272769
15.248702374895196
15.24915403163731
15.249639062553163
15.25016830723241
15.25075115485091
15.251394245350687
15.25209955389613
15.252861859524405
15.253665808094947
15.254483262469707
15.255272156189772
15.255978393918841
15.25654196408978
15.256907006237057
15.25703353915513
17.041643007541637
17.04166323327393
17.04172266545281
17.041817798067342
17.041943477099444
17.04209371238016
17.042262479227517
17.042444339131134
17.042634818691837
17.042830548007338
17.043029231928816
17.04322951535845
17.043430805068358
17.04363308801318
17.04383675919838
17.04404246474767
17.044250959074528
17.044462964566726
17.04467902450603
17.0448993386264
17.045123572736166
17.045350641462175
17.045578467348637
17.0458037498192
17.04602178632924
17.046226430270202
17.046410279190574
17.046565174712857
17.046683033569828
17.046756913684646
17.04678209833888
17.14209893570965
17.14211561204185
17.14216479764842
17.142244095910122
17.14234991980731
17.142477988184098
17.14262384315403
17.14278328389912
17.142952670346393
17.14312907666843
17.143310327891946
17.143494947060763
17.14368205245122
17.14387123479706
17.14406242663603
17.144255772393205
17.144451502926774
17.14464980871819
17.144850708160625
17.14505390642155
17.145258642597796
17.14546352992769
17.145666396412587
17.14586415653204
17.146052743821315
17.146227158308413
17.146381675919873
17.14651024982572
17.146607092446235
17.14666736330055
17.146687832224863
17.24245101213969
17.242465031389848
17.242506499912036
17.242573731086193
17.24266416369894
17.242774674391555
17.242901917650855
17.243042627928226
17.243193852071954
17.243353088224357
17.243518346098497
17.243688137770945
17.243861422776174
17.244037528282025
17.24421605329979
17.244396765619495
17.24457949739017
17.24476403715906
17.244950018650336
17.245136805766585
17.245323375200382
17.245508203736108
17.24568916779532
17.245863480203766
17.246027682426398
17.246177725282557
17.246309159571577
17.24641744382235
17.246498350887332
17.246548419921062
17.246565374502733
17.342704272834574
17.342716253424125
17.342751771967958
17.342809609705576
17.342887893507797
17.3429842977516
17.34309627171986
17.343221250643513
17.343356829854173
17.343500880249348
17.343651612010543
17.34380758648402
17.343967690181255
17.344131084783548
17.34429713883384
17.344465348662332
17.344635255056122
17.344806355486323
17.344978014382868
17.34514937322857
17.34531926362252
17.345486130727473
17.34564797322987
17.345802319055732
17.345946246548895
17.346076470919257
17.34618950400925
17.346281885388798
17.346350467623466
17.346392718704177
17.346406992781745
17.442862501153343
17.442872884361552
17.442903722096226
17.44295411161393
17.443022651207844
17.443107573633583
17.443206900790337
17.443318592050655
17.443440673572244
17.443571330281777
17.443708964279107
17.443852215327325
17.44399995155288
17.444151239531127
17.444305296807418
17.44446143294625
17.444618985357106
17.44477725061516
17.44493541479441
17.445092485639
17.445247230273825
17.445398125228646
17.44554332309276
17.445680650307928
17.44580764013232
17.445921612677928
17.446019803486365
17.446099535585205
17.446158421169113
17.446194567517427
17.446206756503557
17.54292856183331
17.542937671056585
17.54296476320305
17.54300915354513
17.543069769387294
17.54314524003737
17.543234003713586
17.543334412607955
17.543444828700355
17.54356369539451
17.543689587640003
17.543821234558223
17.54395751935936
17.54409746267677
17.544240190490207
17.544384891373518
17.54453076867596
17.544676988601104
17.5448226279628
17.54496662471255
17.54510773481295
17.54524450122473
17.545375237676886
17.545498038151997
17.545610812620648
17.545711356343176
17.545797451217705
17.54586699366571
17.54591813856711
17.545949441800524
17.545959981825895
17.639698023437987
17.63970609908884
17.639730143966595
17.639769626664247
17.639823708101822
17.639891303283697
17.639971156303517
17.6400619153962
17.640162204081708
17.640270676306372
17.640386058027396
17.640507168897436
17.640632926981514
17.640762340717934
17.64089448805333
17.641028486363776
17.641163458020156
17.641298492455302
17.641432608335094
17.64156471875601
17.641693602594813
17.641817886728944
17.64193604049017
17.64204639070277
17.642147155820755
17.642236503881865
17.642312631601555
17.642373859650327
17.6424187364361
17.642446138317815
17.64245535354683
17.729943169711674
17.729950393790773
17.729971922054638
17.73000733283712
17.730055955645017
17.730116914230003
17.730189179965837
17.730271625941636
17.730363080052395
17.73046236723994
17.730568343417257
17.730679914965542
17.730796045731232
17.730915754550786
17.731038102461024
17.73116217233058
17.731287045040418
17.73141177280915
17.731535352874445
17.731656704072414
17.731774648885615
17.731887904731558
17.731995084896276
17.732094715638574
17.732185266903468
17.7322651999092
17.732333028664684
17.732387391301263
17.73242712570707
17.732451341019814
17.732459476597064
17.813632346614604
17.813638861628394
17.813658290287687
17.813690290674476
17.813734315676882
17.81378964347757
17.81385541607743
17.81393067865744
17.81401441949723
17.814105602342668
17.814203193910974
17.81430618089189
17.81441357784058
17.814524428260302
17.814637797581707
17.814752760110117
17.814868383420276
17.8149837104892
17.81509774231562
17.815209423122774
17.815317630168444
17.81542117114153
17.815518788884685
17.815609178683527
17.81569101505835
17.81576299051826
17.81582386346754
17.815872511981876
17.81590798955123
17.815929576809705
17.815936823641934
17.890736145156
17.890742065129174
17.890759728931776
17.89078885339898
17.89082898288703
17.89087951116572
17.890939709624355
17.891008756215882
17.8910857657717
17.891169814913603
17.891259964384265
17.891355273684272
17.89145480913582
17.89155764721837
17.891662871639106
17.89176956571577
17.891876803000773
17.891983636149206
17.89208908632436
17.892192134805438
17.892291718337944
17.892386730570454
17.892476028874867
17.892558450882394
17.892632837500802
17.8926980644278
17.8927530796365
17.892796944272146
17.892828874226385
17.89284827809681
17.892854787725188
17.961227356746118
17.96123277486127
17.961248948163348
17.9612756373089
17.96131245525867
17.961358883226872
17.96141429164977
17.961477961722338
17.961549108707146
17.961626901265152
17.96171047971343
17.961798968604974
17.96189148461111
17.961987141263364
17.962085048903752
17.962184311056067
17.96228401969344
17.9623832491593
17.96248105062743
17.962576448384507
17.962668439073575
17.962755995745333
17.96283807573383
17.962913636037776
17.96298165298576
17.96304114795076
17.96309121690981
17.96313106187324
17.96316002229221
17.963177603316534
17.96318349828907
18.025080956513694
18.025085950502238
18.025100862759906
18.025125486979018
18.02515948810194
18.025202414120187
18.025253711924773
18.025312743550938
18.02537880437125
18.02545113827299
18.025528952759352
18.025611429822234
18.02569773349482
18.02578701545162
18.025878416968986
18.025971068188447
18.026064086792374
18.026156575652884
18.02624762099305
18.026336292026578
18.026421642892732
18.026502718352027
18.026578562090748
18.02664823084116
18.02671081120119
18.02676544077341
18.02681133171987
18.02684779521621
18.02687426551518
18.026890321304222
18.02689570254146
18.082274486740705
18.082279122747337
18.08229296965931
18.082315846289106
18.08234745728811
18.08238740202473
18.082435186791173
18.082490237254138
18.082551912909075
18.08261951917972
18.082692320099255
18.082769547807274
18.082850409731996
18.08293409469544
18.08301977626229
18.083106614076282
18.08319375500068
18.083280333475155
18.08336547234498
18.083448284872944
18.083527878502203
18.08360336154565
18.083673851556508
18.083738488235156
18.083796447900983
18.08384696105826
18.083889331413857
18.08392295518111
18.083947339810358
18.083962120399637
18.083967072512714
18.13278735217728
18.132791687581992
18.132804639251756
18.132826045209633
18.132855640601363
18.132893064506213
18.1329378695383
18.132989531571287
18.133047461459682
18.133111014866984
18.133179503106508
18.13325220155169
18.133328356461643
18.133407191365762
18.13348791135974
18.133569705909267
18.133651751747706
18.133733215170803
18.13381325475894
18.13389102503841
18.133965681460296
18.13403638765506
18.134102323672806
18.134162697798764
18.134216759126826
18.134263812358594
18.13430323340193
18.134334484868713
18.13435713091801
18.134370850100602
18.134375445303565
18.176601785756027
18.176605871262993
18.176618078257437
18.17663825947576
18.176666173506746
18.176701490135496
18.176743798078217
18.176792612748606
18.176847385985344
18.17690751421172
18.176972347888743
18.17704119908081
18.177113347963214
18.17718804934523
18.177264537601957
18.177342030503045
18.177419733343765
18.17749684260539
18.17757254999941
18.177646047255124
18.17771653188813
18.177783214745926
18.177845328025068
18.17790213614793
18.177952946827745
18.177997123743545
18.17803409957315
18.178063388681764
18.178084599128766
18.178097442934828
18.17810174396356
18.213701967647697
18.213705848870294
18.213717446829985
18.213736625477452
18.213763161328036
18.213796747766665
18.213837001448912
18.213883468666616
18.21393563362829
18.213992925403517
18.21405472634016
18.214120378984553
18.2141891923196
18.21426044834147
18.21433340741023
18.214407312783123
18.214481395596987
18.214554879474807
18.21462698547674
18.214696937641506
18.214763969253212
18.214827330509312
18.214886296286775
18.214940176240425
18.214988324690868
18.21503015168804
18.215065134134534
18.21509282641237
18.215112870327797
18.215125003519592
18.215129065861415
18.244074762439684
18.244078481122838
18.244089594327317
18.244107974423933
18.244133411425793
18.244165616563897
18.244204227745257
18.244248814927488
18.244298887362945
18.2443538996703
18.24441325949215
18.24447633393254
18.244542455577168
18.244610929076153
18.24468103676398
18.244752043667454
18.244823203063383
18.244893761727052
18.244962965491826
18.24503006528341
18.245094323689727
18.245155022655823
18.245211471010673
18.245263013944008
18.245309041998055
18.245349000931718
18.245382401444648
18.245408828310886
18.245427948842114
18.245439519969228
18.245443393593824
18.267709365042172
18.26771296003483
18.26772370424641
18.267741476167465
18.267766075643543
18.2677972269513
18.267834583606234
18.267877733054192
18.267926203193525
18.26797946783765
18.268036953833096
18.26809804714885
18.268162098729405
18.268228431061733
18.268296343962476
18.26836511989637
18.26843402991079
18.268502339306522
18.268569313593403
18.268634224836415
18.268696358402114
18.268755020633513
18.26880954617372
18.268859306970587
18.26890372061231
18.26894225932878
18.2689744587217
18.268999925847528
18.2690183466448
18.269029492092805
18.269033222835162
18.28459722357725
18.284600731629162
18.28461121642926
18.28462856062508
18.284652570752677
18.284682979989316
18.28471945253756
18.284761587872712
18.284808926790745
18.284860956471377
18.284917117236464
18.28497680840476
18.285039394027336
18.28510420943292
18.285170567113674
18.285237762235468
18.285305078806072
18.28537179560841
18.28543719239997
18.285500556445662
18.285561189360834
18.285618414751994
18.285671585387487
18.28572009187153
18.285763370532774
18.28580091184488
18.285832268494545
18.28585706276927
18.285874993302574
18.285885840627536
18.285889471324275
18.294732376551362
18.294735832988074
18.294746163760905
18.29476325393017
18.2947869139197
18.294816882087996
18.29485282887379
18.29489436079322
18.294941026219572
18.294992320219613
18.295047691106564
18.295106546159356
18.295168257288235
18.29523216756337
18.295297597151677
18.29536384893099
18.295430214784457
18.29549598167645
18.295560437983262
18.2956228801242
18.2956826194513
18.29573898986233
18.295791354876673
18.29583911611414
18.295881720923415
18.295918670468172
18.29594952741612
18.295973922930713
18.29599156302909
18.29600223379287
18.296005805246583
18.29811115340594
18.298114592727792
18.298124872424303
18.298141878346865
18.298165422194774
18.298195244027873
18.29823101633505
18.298272347950757
18.298318789747757
18.298369839400277
18.29842494786991
18.298483525080716
18.298544945561694
18.298608554969114
18.29867367603918
18.298739614234844
18.298805664080174
18.298871115281298
18.298935259098425
18.298997395007483
18.299056837603636
18.2991129242037
18.2991650218903
18.299212535925705
18.29925491729525
18.299291670684184
18.29932236204322
18.299346625451804
18.299364169350376
18.29937478164025
18.299378333475094
