# vtk DataFile Version 2.0
Unstructured Grid Example
ASCII
DATASET UNSTRUCTURED_GRID

POINTS 961 float
0.400000004 0.01999999956 0
0.3866666556 0.01999999956 0
0.3733333348 0.01999999956 0
0.3600000144 0.01999999956 0
0.346666664 0.01999999956 0
0.3333333432 0.01999999956 0
0.3199999928 0.01999999956 0
0.3066666724 0.01999999956 0
0.293333322 0.01999999956 0
0.2800000012 0.01999999956 0
0.2666666804 0.01999999956 0
0.25333333 0.01999999956 0
0.2399999948 0.01999999956 0
0.226666674 0.01999999956 0
0.2133333384 0.01999999956 0
0.2000000028 0.01999999956 0
0.1866666676 0.01999999956 0
0.173333332 0.01999999956 0
0.1599999964 0.01999999956 0
0.1466666608 0.01999999956 0
0.1333333404 0.01999999956 0
0.1199999972 0.01999999956 0
0.1066666692 0.01999999956 0
0.0933333336 0.01999999956 0
0.0799999984 0.01999999956 0
0.06666667 0.01999999956 0
0.0533333348 0.01999999956 0
0.03999999912 0.01999999956 0
0.02666666732 0.01999999956 0
0.01333333364 0.01999999956 0
0.0 0.01999999956 0
0.400000004 0.00666666684 0
0.3866666556 0.00666666684 0
0.3733333348 0.00666666684 0
0.3600000144 0.00666666684 0
0.346666664 0.00666666684 0
0.3333333432 0.00666666684 0
0.3199999928 0.00666666684 0
0.3066666724 0.00666666684 0
0.293333322 0.00666666684 0
0.2800000012 0.00666666684 0
0.2666666804 0.00666666684 0
0.25333333 0.00666666684 0
0.2399999948 0.00666666684 0
0.226666674 0.00666666684 0
0.2133333384 0.00666666684 0
0.2000000028 0.00666666684 0
0.1866666676 0.00666666684 0
0.173333332 0.00666666684 0
0.1599999964 0.00666666684 0
0.1466666608 0.00666666684 0
0.1333333404 0.00666666684 0
0.1199999972 0.00666666684 0
0.1066666692 0.00666666684 0
0.0933333336 0.00666666684 0
0.0799999984 0.00666666684 0
0.06666667 0.00666666684 0
0.0533333348 0.00666666684 0
0.03999999912 0.00666666684 0
0.02666666732 0.00666666684 0
0.01333333364 0.00666666684 0
0.0 0.00666666684 0
0.400000004 -0.00666666684 0
0.3866666556 -0.00666666684 0
0.3733333348 -0.00666666684 0
0.3600000144 -0.00666666684 0
0.346666664 -0.00666666684 0
0.3333333432 -0.00666666684 0
0.3199999928 -0.00666666684 0
0.3066666724 -0.00666666684 0
0.293333322 -0.00666666684 0
0.2800000012 -0.00666666684 0
0.2666666804 -0.00666666684 0
0.25333333 -0.00666666684 0
0.2399999948 -0.00666666684 0
0.226666674 -0.00666666684 0
0.2133333384 -0.00666666684 0
0.2000000028 -0.00666666684 0
0.1866666676 -0.00666666684 0
0.173333332 -0.00666666684 0
0.1599999964 -0.00666666684 0
0.1466666608 -0.00666666684 0
0.1333333404 -0.00666666684 0
0.1199999972 -0.00666666684 0
0.1066666692 -0.00666666684 0
0.0933333336 -0.00666666684 0
0.0799999984 -0.00666666684 0
0.06666667 -0.00666666684 0
0.0533333348 -0.00666666684 0
0.03999999912 -0.00666666684 0
0.02666666732 -0.00666666684 0
0.01333333364 -0.00666666684 0
0.0 -0.00666666684 0
0.400000004 -0.01999999956 0
0.3866666556 -0.01999999956 0
0.3733333348 -0.01999999956 0
0.3600000144 -0.01999999956 0
0.346666664 -0.01999999956 0
0.3333333432 -0.01999999956 0
0.3199999928 -0.01999999956 0
0.3066666724 -0.01999999956 0
0.293333322 -0.01999999956 0
0.2800000012 -0.01999999956 0
0.2666666804 -0.01999999956 0
0.25333333 -0.01999999956 0
0.2399999948 -0.01999999956 0
0.226666674 -0.01999999956 0
0.2133333384 -0.01999999956 0
0.2000000028 -0.01999999956 0
0.1866666676 -0.01999999956 0
0.173333332 -0.01999999956 0
0.1599999964 -0.01999999956 0
0.1466666608 -0.01999999956 0
0.1333333404 -0.01999999956 0
0.1199999972 -0.01999999956 0
0.1066666692 -0.01999999956 0
0.0933333336 -0.01999999956 0
0.0799999984 -0.01999999956 0
0.06666667 -0.01999999956 0
0.0533333348 -0.01999999956 0
0.03999999912 -0.01999999956 0
0.02666666732 -0.01999999956 0
0.01333333364 -0.01999999956 0
0.0 -0.01999999956 0
0.400000004 -0.03333333508 0
0.3866666556 -0.03333333508 0
0.3733333348 -0.03333333508 0
0.3600000144 -0.03333333508 0
0.346666664 -0.03333333508 0
0.3333333432 -0.03333333508 0
0.3199999928 -0.03333333508 0
0.3066666724 -0.03333333508 0
0.293333322 -0.03333333508 0
0.2800000012 -0.03333333508 0
0.2666666804 -0.03333333508 0
0.25333333 -0.03333333508 0
0.2399999948 -0.03333333508 0
0.226666674 -0.03333333508 0
0.2133333384 -0.03333333508 0
0.2000000028 -0.03333333508 0
0.1866666676 -0.03333333508 0
0.173333332 -0.03333333508 0
0.1599999964 -0.03333333508 0
0.1466666608 -0.03333333508 0
0.1333333404 -0.03333333508 0
0.1199999972 -0.03333333508 0
0.1066666692 -0.03333333508 0
0.0933333336 -0.03333333508 0
0.0799999984 -0.03333333508 0
0.06666667 -0.03333333508 0
0.0533333348 -0.03333333508 0
0.03999999912 -0.03333333508 0
0.02666666732 -0.03333333508 0
0.01333333364 -0.03333333508 0
0.0 -0.03333333508 0
0.400000004 -0.0466666668 0
0.3866666556 -0.0466666668 0
0.3733333348 -0.0466666668 0
0.3600000144 -0.0466666668 0
0.346666664 -0.0466666668 0
0.3333333432 -0.0466666668 0
0.3199999928 -0.0466666668 0
0.3066666724 -0.0466666668 0
0.293333322 -0.0466666668 0
0.2800000012 -0.0466666668 0
0.2666666804 -0.0466666668 0
0.25333333 -0.0466666668 0
0.2399999948 -0.0466666668 0
0.226666674 -0.0466666668 0
0.2133333384 -0.0466666668 0
0.2000000028 -0.0466666668 0
0.1866666676 -0.0466666668 0
0.173333332 -0.0466666668 0
0.1599999964 -0.0466666668 0
0.1466666608 -0.0466666668 0
0.1333333404 -0.0466666668 0
0.1199999972 -0.0466666668 0
0.1066666692 -0.0466666668 0
0.0933333336 -0.0466666668 0
0.0799999984 -0.0466666668 0
0.06666667 -0.0466666668 0
0.0533333348 -0.0466666668 0
0.03999999912 -0.0466666668 0
0.02666666732 -0.0466666668 0
0.01333333364 -0.0466666668 0
0.0 -0.0466666668 0
0.400000004 -0.0599999988 0
0.3866666556 -0.0599999988 0
0.3733333348 -0.0599999988 0
0.3600000144 -0.0599999988 0
0.346666664 -0.0599999988 0
0.3333333432 -0.0599999988 0
0.3199999928 -0.0599999988 0
0.3066666724 -0.0599999988 0
0.293333322 -0.0599999988 0
0.2800000012 -0.0599999988 0
0.2666666804 -0.0599999988 0
0.25333333 -0.0599999988 0
0.2399999948 -0.0599999988 0
0.226666674 -0.0599999988 0
0.2133333384 -0.0599999988 0
0.2000000028 -0.0599999988 0
0.1866666676 -0.0599999988 0
0.173333332 -0.0599999988 0
0.1599999964 -0.0599999988 0
0.1466666608 -0.0599999988 0
0.1333333404 -0.0599999988 0
0.1199999972 -0.0599999988 0
0.1066666692 -0.0599999988 0
0.0933333336 -0.0599999988 0
0.0799999984 -0.0599999988 0
0.06666667 -0.0599999988 0
0.0533333348 -0.0599999988 0
0.03999999912 -0.0599999988 0
0.02666666732 -0.0599999988 0
0.01333333364 -0.0599999988 0
0.0 -0.0599999988 0
0.400000004 -0.0733333304 0
0.3866666556 -0.0733333304 0
0.3733333348 -0.0733333304 0
0.3600000144 -0.0733333304 0
0.346666664 -0.0733333304 0
0.3333333432 -0.0733333304 0
0.3199999928 -0.0733333304 0
0.3066666724 -0.0733333304 0
0.293333322 -0.0733333304 0
0.2800000012 -0.0733333304 0
0.2666666804 -0.0733333304 0
0.25333333 -0.0733333304 0
0.2399999948 -0.0733333304 0
0.226666674 -0.0733333304 0
0.2133333384 -0.0733333304 0
0.2000000028 -0.0733333304 0
0.1866666676 -0.0733333304 0
0.173333332 -0.0733333304 0
0.1599999964 -0.0733333304 0
0.1466666608 -0.0733333304 0
0.1333333404 -0.0733333304 0
0.1199999972 -0.0733333304 0
0.1066666692 -0.0733333304 0
0.0933333336 -0.0733333304 0
0.0799999984 -0.0733333304 0
0.06666667 -0.0733333304 0
0.0533333348 -0.0733333304 0
0.03999999912 -0.0733333304 0
0.02666666732 -0.0733333304 0
0.01333333364 -0.0733333304 0
0.0 -0.0733333304 0
0.400000004 -0.086666666 0
0.3866666556 -0.086666666 0
0.3733333348 -0.086666666 0
0.3600000144 -0.086666666 0
0.346666664 -0.086666666 0
0.3333333432 -0.086666666 0
0.3199999928 -0.086666666 0
0.3066666724 -0.086666666 0
0.293333322 -0.086666666 0
0.2800000012 -0.086666666 0
0.2666666804 -0.086666666 0
0.25333333 -0.086666666 0
0.2399999948 -0.086666666 0
0.226666674 -0.086666666 0
0.2133333384 -0.086666666 0
0.2000000028 -0.086666666 0
0.1866666676 -0.086666666 0
0.173333332 -0.086666666 0
0.1599999964 -0.086666666 0
0.1466666608 -0.086666666 0
0.1333333404 -0.086666666 0
0.1199999972 -0.086666666 0
0.1066666692 -0.086666666 0
0.0933333336 -0.086666666 0
0.0799999984 -0.086666666 0
0.06666667 -0.086666666 0
0.0533333348 -0.086666666 0
0.03999999912 -0.086666666 0
0.02666666732 -0.086666666 0
0.01333333364 -0.086666666 0
0.0 -0.086666666 0
0.400000004 -0.1000000016 0
0.3866666556 -0.1000000016 0
0.3733333348 -0.1000000016 0
0.3600000144 -0.1000000016 0
0.346666664 -0.1000000016 0
0.3333333432 -0.1000000016 0
0.3199999928 -0.1000000016 0
0.3066666724 -0.1000000016 0
0.293333322 -0.1000000016 0
0.2800000012 -0.1000000016 0
0.2666666804 -0.1000000016 0
0.25333333 -0.1000000016 0
0.2399999948 -0.1000000016 0
0.226666674 -0.1000000016 0
0.2133333384 -0.1000000016 0
0.2000000028 -0.1000000016 0
0.1866666676 -0.1000000016 0
0.173333332 -0.1000000016 0
0.1599999964 -0.1000000016 0
0.1466666608 -0.1000000016 0
0.1333333404 -0.1000000016 0
0.1199999972 -0.1000000016 0
0.1066666692 -0.1000000016 0
0.0933333336 -0.1000000016 0
0.0799999984 -0.1000000016 0
0.06666667 -0.1000000016 0
0.0533333348 -0.1000000016 0
0.03999999912 -0.1000000016 0
0.02666666732 -0.1000000016 0
0.01333333364 -0.1000000016 0
0.0 -0.1000000016 0
0.400000004 -0.1133333372 0
0.3866666556 -0.1133333372 0
0.3733333348 -0.1133333372 0
0.3600000144 -0.1133333372 0
0.346666664 -0.1133333372 0
0.3333333432 -0.1133333372 0
0.3199999928 -0.1133333372 0
0.3066666724 -0.1133333372 0
0.293333322 -0.1133333372 0
0.2800000012 -0.1133333372 0
0.2666666804 -0.1133333372 0
0.25333333 -0.1133333372 0
0.2399999948 -0.1133333372 0
0.226666674 -0.1133333372 0
0.2133333384 -0.1133333372 0
0.2000000028 -0.1133333372 0
0.1866666676 -0.1133333372 0
0.173333332 -0.1133333372 0
0.1599999964 -0.1133333372 0
0.1466666608 -0.1133333372 0
0.1333333404 -0.1133333372 0
0.1199999972 -0.1133333372 0
0.1066666692 -0.1133333372 0
0.0933333336 -0.1133333372 0
0.0799999984 -0.1133333372 0
0.06666667 -0.1133333372 0
0.0533333348 -0.1133333372 0
0.03999999912 -0.1133333372 0
0.02666666732 -0.1133333372 0
0.01333333364 -0.1133333372 0
0.0 -0.1133333372 0
0.400000004 -0.1266666652 0
0.3866666556 -0.1266666652 0
0.3733333348 -0.1266666652 0
[...]
POINT_DATA 961
SCALARS Temp float 1
LOOKUP_TABLE default
0.7266179456507494
0.7556392986993006
0.7764660816094351
0.7916092256843386
0.8027047657043587
0.810874567062505
0.816917327758373
0.8214079196575405
0.8247647574530159
0.8272944181462968
0.8292242018507717
0.8307247095456249
0.8319263158839442
0.8329319894067986
0.8338268582124757
0.8346857982466138
0.8355803820398374
0.8365852664003317
0.8377849030413497
0.8392812156671705
0.8412029495253031
0.8437179805517246
0.8470490058517286
0.8514958371953509
0.8574653304710045
0.86551386090405
0.8764078378182462
0.8912122364601833
0.9114254496587489
0.9392220795214932
0.9780515934565586
0.7669314242880785
0.7953889091720702
0.8159919979287398
0.8310522517972484
0.842109692471634
0.8502638546685963
0.8563019049143685
0.8607932268299645
0.8641533672873212
0.8666874110555567
0.8686218920805897
0.8701270508983568
0.8713331346031465
0.8723431089520882
0.8732421686046725
0.874105296885894
0.8750041885919223
0.876013622150413
0.8772181518963651
0.8787197582163859
0.8806471544134717
0.883168014156217
0.8865045384344825
0.8909555001374782
0.8969257436864999
0.9049678124977563
0.9158407529673711
0.930594320681185
0.9506952206356336
0.9782084480436615
1.016124984343814
2.654370875114168
2.6585986930547985
2.6703817416151407
2.6812492807895802
2.690235891063807
2.697385930580558
2.7029842544459965
2.707338375784763
2.7107210608792256
2.7133586959326874
2.715434436100937
2.717095542483853
2.718461333809757
2.7196306235736936
2.72068833867744
2.721711437489677
2.7227744138058245
2.723954694772303
2.72533822444226
2.7270255799364955
2.7291389617286566
2.7318302895102184
2.735290543276026
2.7397599824909777
2.7455376477662794
2.752985273375109
2.7625116022792064
2.7744953780575012
2.7889949512707144
2.8047122567161367
2.8103549361914126
4.518287923203795
4.520595119578707
4.526257871569649
4.533333701378554
4.54004267460757
4.545859226759275
4.550697955818577
4.554640262834761
4.5578207760719005
4.560381380725625
4.562453692316361
4.564153819729249
4.565582587373884
4.566828106252583
4.567969257762754
4.569079514123817
4.570230893951901
4.571497994748577
4.572962134682612
4.574715614678395
4.576866010033512
4.579540192572889
4.582887202640514
4.58707817811214
4.592299066268966
4.598726901419097
4.606468320732059
4.615407618463443
4.624841154760148
4.63239297826288
4.635469830332274
6.376699801065389
6.377927665780764
6.381246077121876
6.385739122065876
6.3905238867533285
6.395019729044241
6.398987659370857
6.402371242217496
6.405202993727626
6.407553662578368
6.409506645535871
6.4111458174107305
6.412550562332992
6.4137946308268
6.414946976330109
6.4160736290212625
6.4172401045226435
6.418514037350299
6.419967838742701
6.4216811442291695
6.423742671068224
6.426250810876526
6.429311617026718
6.4330318442011265
6.43750242429252
6.442764017637727
6.448739200478263
6.455107204001566
6.46109179244162
6.465513665512196
6.467150134728322
8.231789699779135
8.232537558430558
8.234606872835272
8.237569576216544
8.240930234122002
8.244293632313227
8.247418431903995
8.250195731876989
8.252600357530866
8.254654096398127
8.256402410133797
8.25790090372287
8.259208144442352
8.260382393588216
8.261480642092007
8.262558986814392
8.263673742316282
8.264882851064844
8.266247255741794
8.267831859174862
8.269705552178209
8.271939518589924
8.274602471879144
8.277750796066071
8.28141024318878
8.285544594161424
8.290006491039152
8.29447223348506
8.29841319150883
8.301167353086571
8.302162970220142
10.08464316908982
10.085119471337158
10.08646228887959
10.088447344353149
10.090794275017547
10.093247008726339
10.095619831109158
10.097803879217917
10.099752133020395
10.101459219016316
10.102944996872749
10.10424319372348
10.105394349134656
10.106441889316823
10.107430267674284
10.108404410084962
10.109409910921297
10.110493531024021
10.11170362322875
10.11309007598874
10.114703252108649
10.116591211502225
10.118794161386402
10.121334825888832
10.12420308039808
10.127333839385612
10.1305800269706
10.133692387452458
10.136328156175537
10.138112455040675
10.13874556148446
11.935738723538478
11.936045505148622
11.936919975345614
11.938239731398696
11.939843100629071
11.94157031618288
11.943292473730578
11.94492283336611
11.94641443287433
11.947751232962629
11.948938429646688
11.949994485920898
11.95094550369933
11.951821676183771
11.95265528615744
11.953479758510685
11.954329346775523
11.955239073970272
11.95624459285271
11.957381603098073
11.958684391283963
11.960182963199683
11.961898087127276
11.963833628671582
11.9659657698907
11.968229926221444
11.970508871354289
11.972629431435063
11.974377560319395
11.975536917059634
11.975943812286795
13.785314004168729
13.785503346257672
13.786047016152393
13.786878855908029
13.787908465648046
13.789041893272405
13.790198194927516
13.791318127734575
13.792365532277834
13.793324072829988
13.794192306221754
13.79497890722611
13.795698906395787
13.79637108920763
13.797016367369439
13.797656862325077
13.798315434674723
13.799015391776896
13.799780127686335
13.800632431044614
13.80159316081182
13.802678959237875
13.803898640088264
13.805248071184105
13.806703706365766
13.808215901559812
13.80970452602109
13.811060724835968
13.812158511483622
13.812876821608763
13.81312711936032
15.63348478220836
15.633583797451328
15.63386968790104
15.634311826695019
15.63486745616651
15.635490704472893
15.636140342761339
15.636784486482702
15.637402089365025
15.637982075796451
15.638521344081656
15.639022544360712
15.639492165702272
15.639939114244168
15.640373749367459
15.640807276905559
15.641251374121651
15.641717905832355
15.642218599813493
15.642764539971242
15.643365323604321
15.644027729522444
15.644753753502753
15.645538012121266
15.646364730367146
15.647205023883231
15.648015723381667
15.648741324236372
15.649320256709629
15.649695212649176
15.649825175732875
17.480306526152418
17.480327469343077
17.480389019689284
17.48048757448175
17.480617836366598
17.480773646205762
17.480948805536787
17.481137713410753
17.481335755369123
17.48153944563334
17.48174639797982
17.48195518790412
17.482165170209626
17.482376293073294
17.482588921900536
17.482803678767354
17.483021296375558
17.483242474571448
17.483467729928343
17.483697227517002
17.48393058605826
17.48416665551182
17.484403270343563
17.484637012951072
17.484863030541618
17.485074992281145
17.485265282649383
17.48542551447031
17.485547381556813
17.48562375240383
17.485649782388457
17.58334790149837
17.583365206407304
17.583416253848686
17.583498578984
17.583608491664382
17.58374158557558
17.58389326915045
17.584059210712148
17.58423565025383
17.5844195571351
17.584608667995898
17.58480143289787
17.584996910255008
17.58519464133386
17.585394516659854
17.585596643176146
17.585801216026354
17.58600838893231
17.586218139546872
17.586430125134548
17.586643526229018
17.586856883175354
17.587067933023842
17.587273478359688
17.587469318479375
17.587650298381796
17.587810523857193
17.58794377341035
17.588044095466106
17.588106514094058
17.58812770942133
17.68628233095303
17.686296915028837
17.68634006062491
17.686410031028416
17.686504188054116
17.68661931264333
17.686751953798495
17.68689873866042
17.68705661121613
17.687222975021538
17.687395755401177
17.687573390350398
17.68775477458599
17.687939178112863
17.688126148401302
17.68831540509889
17.688506733400253
17.68869987376978
17.688894408322998
17.689089643329776
17.68928448925168
17.68947734559679
17.689665998263457
17.689847555106688
17.690018438315875
17.690174467548758
17.690311055763335
17.69042352514131
17.69050752436916
17.690559492423183
17.690577087578504
17.789114970871722
17.7891274706654
17.78916453361716
17.789224902694396
17.789306645139675
17.78940735965352
17.789524409845605
17.78965514089637
17.78979705849449
17.789947947532724
17.79010593784993
17.790269516775794
17.790437502844007
17.790608994971024
17.790783302837077
17.79095986622061
17.791138170016396
17.7913176546816
17.791497624682474
17.791677156751884
17.791855011177717
17.792029553749416
17.79219869457005
17.792359863588885
17.792510032679242
17.79264580466458
17.792763577506737
17.7928597816095
17.79293117265708
17.792975142005403
17.79298999451209
17.891849688359148
17.891860558793294
17.89189284776763
17.891945622103613
17.892017432108716
17.892106448552642
17.89221062153639
17.892327832834944
17.89245602885247
17.89259331524331
17.89273801721986
17.892888700943605
17.893044164384385
17.893203407117007
17.89336558208718
17.893529935606796
17.89369574204289
17.893862233869722
17.894028530711207
17.894193570264967
17.894356044892778
17.894514350848684
17.89466655449044
17.894810390476817
17.894943295950178
17.895062493001983
17.895165120880716
17.895248412747893
17.89530990278716
17.895347637606
17.895360360497026
17.994489403743952
17.994498978922376
17.99452746033614
17.994574138058887
17.99463789925705
17.994717320598816
17.994810778129875
17.994916555245922
17.99503294130407
17.99515830538615
17.995291148131955
17.99543012534064
17.99557404830488
17.995721867222496
17.995872638785485
17.996025482815146
17.996179533754646
17.996333887936903
17.99648755052489
17.996639385290628
17.996788070887312
17.996932069554482
17.99706961090751
17.997198702152705
17.997317165131275
17.99742270779209
17.997513028487788
17.997585947436935
17.997639554612636
17.997672356144648
17.997683399169308
18.09374628788017
18.093754815287518
18.093780208076968
18.093821913184776
18.09387905673709
18.0939505075251
18.094034954168748
18.09413098231614
18.094237147967053
18.094352034331994
18.094474294930563
18.0946026762481
18.094736023015752
18.09487327049776
18.095013423607245
18.09515552656713
18.09529862816042
18.095441743374693
18.09558381515713
18.09572367926963
18.095860035437372
18.09599142965588
18.096116248962687
18.09623273737459
18.096339031314198
18.09643321946377
18.096513424252528
18.09657789988632
18.09662513906306
18.096653975968696
18.096663672524155
18.186308696520914
18.186316362125588
18.186339208461522
18.186376794649405
18.18642841911107
18.18649316388418
18.186569949612412
18.186657591256598
18.186754852916852
18.186860491473297
18.186973291848098
18.187092087438014
18.187215767754353
18.18734327644282
18.18747359870729
18.187605740955618
18.18773870696587
18.18787147110537
18.188002951919195
18.18813198868686
18.18825732357043
18.188377593249466
18.188491330361693
18.188596981584165
18.18869293956774
18.188777592176702
18.188849385964172
18.188906899654114
18.188948921996605
18.188974525313213
18.18898312613686
18.27214431950891
18.272151268735904
18.272171994120924
18.272206136228746
18.27225311944818
18.272312183404996
18.27238242272619
18.272462827650067
18.272552325352848
18.27264981347493
18.27275418881836
18.27286436523759
18.27297928221811
18.27309790656963
18.273219225790506
18.273342235240825
18.273465922759918
18.273589250944603
18.273711139931034
18.273830452821628
18.273945985819307
18.274056466152324
18.27416055742237
18.27425687789858
18.274344028447846
18.274420632732546
18.274485386740537
18.274537114273187
18.274574824408667
18.274597764784776
18.27460546494713
18.351223245769873
18.35122959479986
18.3512485402697
18.35127978267827
18.35132283968868
18.351377068729263
18.351441696183862
18.351515847324855
18.3515985778031
18.351688899538956
18.351785804130195
18.35188827833491
18.351995312843705
18.3521059063059
18.352219062912074
18.35233378516401
18.352449064905745
18.352563872533608
18.35267714676201
18.35278778664351
18.352894647408416
18.35299654255673
18.353092251377138
18.353180536489873
18.353260167922645
18.353329955898246
18.35338878969034
18.3534356799129
18.353469801461024
18.353490532677377
18.353497486840393
18.423517906561862
18.42352375017064
18.42354119473623
18.423569985401667
18.423609709695675
18.423659814042235
18.42371962553581
18.423788374284346
18.423865217726185
18.42394926080755
18.424039575229724
18.424135212837594
18.424235214222666
18.424338614212118
18.424444442425134
18.424551720153715
18.424659456178652
18.424766641183854
18.424872242728412
18.424975202082944
18.42507443408348
18.42516883192598
18.42525727578594
18.42533864919649
18.425411859701914
18.425475865712812
18.425529707245737
18.425572538513066
18.425603660445272
18.425622549913687
18.425628882973317
18.489003043660972
18.48900846075221
18.489024637299238
18.48905135205307
18.48908824540198
18.489134831628398
18.489190515442132
18.48925460890253
18.4893263505
18.489404921083477
18.489489459885213
18.489579076172674
18.489672857528625
18.489769876239116
18.489869191929714
18.489969851430907
18.49007088810987
18.490171320128105
18.490270149229538
18.490366361039918
18.490458927700196
18.490546814367008
18.490628988288314
18.49070443390606
18.490772170605155
18.490831274889793
18.490880904976258
18.490920326238363
18.490948936206088
18.490966286717395
18.490972101362026
18.547656084763688
18.547661142335873
18.547676249063333
18.547701209213347
18.54773570349103
18.54777929830392
18.547831458564996
18.547891560729788
18.547958908053623
18.548032743371333
18.548112262653547
18.548196625260285
18.54828496185496
18.548376381327238
18.54846997486964
18.548564817985543
18.54865997236722
18.548754486948674
18.54884739944793
18.548937739117385
18.54902453126906
18.54910680481161
18.549183601408345
18.54925398935144
18.54931707891576
18.54937204088286
18.54941812649131
18.54945468760864
18.54948119626804
18.54949726175228
18.54950264392071
18.59945640065322
18.59946115669713
18.599475365497838
18.599498850805524
18.599531324236928
18.59957239242324
18.59962156714666
18.59967827558733
18.59974187278694
18.599811652106755
18.5998868569085
18.59996668970484
18.600050319719706
18.60013689011271
18.60022552304175
18.600315323190326
18.600405381464114
18.600494778046926
18.60058258590054
18.600667875222264
18.60074971923268
18.600827202307727
18.600899429015932
18.600965536887582
18.601024709832963
18.60107619383973
18.601119313425933
18.601153487916612
18.601178247
18.601193244159386
18.601198267056624
18.644386273949532
18.644390779593582
18.64440424227701
18.64442650064854
18.6444572900514
18.644496248169393
18.64454292325449
18.644596782370154
18.644657221818196
18.644723575892527
18.644795127147262
18.644871114690787
18.644950741430648
18.645033181452842
18.645117585749173
18.645203086808568
18.64528880359259
18.64537384600581
18.645457319765253
18.645538332026682
18.645615997995527
18.645689449370717
18.645757843164358
18.64582037352053
18.64587628359628
18.645924879090153
18.64596554207234
18.645997744387106
18.646021060306023
18.64603517732096
18.64603990441512
18.682429973599344
18.68243427473785
18.68244712776624
18.682468382671868
18.68249779291408
18.682535020007222
18.682579640384766
18.682631152210234
18.68268898432681
18.68275250377068
18.682821024985646
18.682893817463626
18.68297011272218
18.683049111749888
18.683129991173868
18.683211908584397
18.683294008395542
18.683375427297545
18.683455300067834
18.68353276598222
18.68360697594796
18.683677101084445
18.683742341295055
18.683801936298117
18.683855176308967
18.68390141392412
18.683940076000077
18.683970674946945
18.683992819272113
18.684006222470746
18.684010709782402
18.713574489193118
18.713578627742432
18.713590995894947
18.71361145213995
18.713639763558902
18.713675609662385
18.7137185882908
18.713768221412412
18.713823963015887
18.71388520573322
18.71395128928276
18.71402150762154
18.71409511570678
18.7141713369564
18.714249369701676
18.714328393007403
18.71440757313232
18.714486069649272
18.714563041890024
18.71463765587147
18.714709091748617
18.7147765524322
18.714839271922955
18.714896525713716
18.71494764055923
18.714992005137127
18.715029080497416
18.71505840982975
18.71507962749181
18.715092466542345
18.71509676442242
18.73780914763322
18.737813162531367
18.73782516182725
18.73784501018229
18.7378724845895
18.73790727769982
18.737949003058695
18.737997200206188
18.73805134183353
18.738110839785236
18.738175052954556
18.738243294084022
18.73831483636132
18.738388920870662
18.738464763223767
18.738541559705297
18.738618494127397
18.738694744390404
18.73876948934126
18.73884191602687
18.738911227335407
18.738976650600605
18.739037445733704
18.739092915148063
18.73914241286146
18.739185354277325
18.73922122561955
18.739249592625942
18.739270108517495
18.739282520587466
18.739286675137848
18.755125516164824
18.75512944419068
18.755141184291546
18.75516060531758
18.755187491000058
18.755221542947115
18.755262385447946
18.755309570119387
18.755362582579338
18.755420848041872
18.75548373884793
18.755550581029127
18.755620660787134
18.755693231927903
18.75576752259861
18.75584274163478
18.75591808565987
18.755992745920487
18.75606591540012
18.75613679626936
18.756204607631286
18.756268594096074
18.75632803376021
18.756382247797028
18.756430609104264
18.75647255149353
18.756507578449312
18.756535271112245
18.75655529555119
18.756567408733506
18.756571462974584
18.765517733289037
18.765521609756505
18.765533196006494
18.76555236331884
18.76557889933788
18.765612510882736
18.7656528285081
18.7656994108953
18.765751751252605
18.765809282679456
18.765871385488875
18.765937393634697
18.7660066011218
18.766078269426178
18.766151634287183
18.766225912164163
18.766300307468725
18.766374019549435
18.766446249943392
18.766516209930383
18.766583128329277
18.76664626004714
18.766704893964118
18.76675836232641
18.766806049129475
18.766847398966767
18.766881925402018
18.766909218547955
18.76692895194267
18.766940888169422
18.766944883031087
18.768982190637956
18.76898605001209
18.768997585252194
18.769016668434467
18.769043088486608
18.769076553938316
18.769116697403433
18.76916307988875
18.769215197105638
18.769272484759806
18.76933432580586
18.769400056829795
18.769468974436524
18.76954034266445
18.7696133997949
18.769687364843293
18.76976144483341
18.769834841829418
18.769906760230818
18.76997641435905
18.770043036268987
18.770105884288338
18.770164250870707
18.770217471923115
18.77026493510257
18.770306088553582
18.77034044915448
18.7703676099649
18.770387246973776
18.770399124605746
18.77040309980665
