# vtk DataFile Version 2.0
Unstructured Grid Example
ASCII
DATASET UNSTRUCTURED_GRID

POINTS 961 float
0.400000004 0.01999999956 0
0.3866666556 0.01999999956 0
0.3733333348 0.01999999956 0
0.3600000144 0.01999999956 0
0.346666664 0.01999999956 0
0.3333333432 0.01999999956 0
0.3199999928 0.01999999956 0
0.3066666724 0.01999999956 0
0.293333322 0.01999999956 0
0.2800000012 0.01999999956 0
0.2666666804 0.01999999956 0
0.25333333 0.01999999956 0
0.2399999948 0.01999999956 0
0.226666674 0.01999999956 0
0.2133333384 0.01999999956 0
0.2000000028 0.01999999956 0
0.1866666676 0.01999999956 0
0.173333332 0.01999999956 0
0.1599999964 0.01999999956 0
0.1466666608 0.01999999956 0
0.1333333404 0.01999999956 0
0.1199999972 0.01999999956 0
0.1066666692 0.01999999956 0
0.0933333336 0.01999999956 0
0.0799999984 0.01999999956 0
0.06666667 0.01999999956 0
0.0533333348 0.01999999956 0
0.03999999912 0.01999999956 0
0.02666666732 0.01999999956 0
0.01333333364 0.01999999956 0
0.0 0.01999999956 0
0.400000004 0.00666666684 0
0.3866666556 0.00666666684 0
0.3733333348 0.00666666684 0
0.3600000144 0.00666666684 0
0.346666664 0.00666666684 0
0.3333333432 0.00666666684 0
0.3199999928 0.00666666684 0
0.3066666724 0.00666666684 0
0.293333322 0.00666666684 0
0.2800000012 0.00666666684 0
0.2666666804 0.00666666684 0
0.25333333 0.00666666684 0
0.2399999948 0.00666666684 0
0.226666674 0.00666666684 0
0.2133333384 0.00666666684 0
0.2000000028 0.00666666684 0
0.1866666676 0.00666666684 0
0.173333332 0.00666666684 0
0.1599999964 0.00666666684 0
0.1466666608 0.00666666684 0
0.1333333404 0.00666666684 0
0.1199999972 0.00666666684 0
0.1066666692 0.00666666684 0
0.0933333336 0.00666666684 0
0.0799999984 0.00666666684 0
0.06666667 0.00666666684 0
0.0533333348 0.00666666684 0
0.03999999912 0.00666666684 0
0.02666666732 0.00666666684 0
0.01333333364 0.00666666684 0
0.0 0.00666666684 0
0.400000004 -0.00666666684 0
0.3866666556 -0.00666666684 0
0.3733333348 -0.00666666684 0
0.3600000144 -0.00666666684 0
0.346666664 -0.00666666684 0
0.3333333432 -0.00666666684 0
0.3199999928 -0.00666666684 0
0.3066666724 -0.00666666684 0
0.293333322 -0.00666666684 0
0.2800000012 -0.00666666684 0
0.2666666804 -0.00666666684 0
0.25333333 -0.00666666684 0
0.2399999948 -0.00666666684 0
0.226666674 -0.00666666684 0
0.2133333384 -0.00666666684 0
0.2000000028 -0.00666666684 0
0.1866666676 -0.00666666684 0
0.173333332 -0.00666666684 0
0.1599999964 -0.00666666684 0
0.1466666608 -0.00666666684 0
0.1333333404 -0.00666666684 0
0.1199999972 -0.00666666684 0
0.1066666692 -0.00666666684 0
0.0933333336 -0.00666666684 0
0.0799999984 -0.00666666684 0
0.06666667 -0.00666666684 0
0.0533333348 -0.00666666684 0
0.03999999912 -0.00666666684 0
0.02666666732 -0.00666666684 0
0.01333333364 -0.00666666684 0
0.0 -0.00666666684 0
0.400000004 -0.01999999956 0
0.3866666556 -0.01999999956 0
0.3733333348 -0.01999999956 0
0.3600000144 -0.01999999956 0
0.346666664 -0.01999999956 0
0.3333333432 -0.01999999956 0
0.3199999928 -0.01999999956 0
0.3066666724 -0.01999999956 0
0.293333322 -0.01999999956 0
0.2800000012 -0.01999999956 0
0.2666666804 -0.01999999956 0
0.25333333 -0.01999999956 0
0.2399999948 -0.01999999956 0
0.226666674 -0.01999999956 0
0.2133333384 -0.01999999956 0
0.2000000028 -0.01999999956 0
0.1866666676 -0.01999999956 0
0.173333332 -0.01999999956 0
0.1599999964 -0.01999999956 0
0.1466666608 -0.01999999956 0
0.1333333404 -0.01999999956 0
0.1199999972 -0.01999999956 0
0.1066666692 -0.01999999956 0
0.0933333336 -0.01999999956 0
0.0799999984 -0.01999999956 0
0.06666667 -0.01999999956 0
0.0533333348 -0.01999999956 0
0.03999999912 -0.01999999956 0
0.02666666732 -0.01999999956 0
0.01333333364 -0.01999999956 0
0.0 -0.01999999956 0
0.400000004 -0.03333333508 0
0.3866666556 -0.03333333508 0
0.3733333348 -0.03333333508 0
0.3600000144 -0.03333333508 0
0.346666664 -0.03333333508 0
0.3333333432 -0.03333333508 0
0.3199999928 -0.03333333508 0
0.3066666724 -0.03333333508 0
0.293333322 -0.03333333508 0
0.2800000012 -0.03333333508 0
0.2666666804 -0.03333333508 0
0.25333333 -0.03333333508 0
0.2399999948 -0.03333333508 0
0.226666674 -0.03333333508 0
0.2133333384 -0.03333333508 0
0.2000000028 -0.03333333508 0
0.1866666676 -0.03333333508 0
0.173333332 -0.03333333508 0
0.1599999964 -0.03333333508 0
0.1466666608 -0.03333333508 0
0.1333333404 -0.03333333508 0
0.1199999972 -0.03333333508 0
0.1066666692 -0.03333333508 0
0.0933333336 -0.03333333508 0
0.0799999984 -0.03333333508 0
0.06666667 -0.03333333508 0
0.0533333348 -0.03333333508 0
0.03999999912 -0.03333333508 0
0.02666666732 -0.03333333508 0
0.01333333364 -0.03333333508 0
0.0 -0.03333333508 0
0.400000004 -0.0466666668 0
0.3866666556 -0.0466666668 0
0.3733333348 -0.0466666668 0
0.3600000144 -0.0466666668 0
0.346666664 -0.0466666668 0
0.3333333432 -0.0466666668 0
0.3199999928 -0.0466666668 0
0.3066666724 -0.0466666668 0
0.293333322 -0.0466666668 0
0.2800000012 -0.0466666668 0
0.2666666804 -0.0466666668 0
0.25333333 -0.0466666668 0
0.2399999948 -0.0466666668 0
0.226666674 -0.0466666668 0
0.2133333384 -0.0466666668 0
0.2000000028 -0.0466666668 0
0.1866666676 -0.0466666668 0
0.173333332 -0.0466666668 0
0.1599999964 -0.0466666668 0
0.1466666608 -0.0466666668 0
0.1333333404 -0.0466666668 0
0.1199999972 -0.0466666668 0
0.1066666692 -0.0466666668 0
0.0933333336 -0.0466666668 0
0.0799999984 -0.0466666668 0
0.06666667 -0.0466666668 0
0.0533333348 -0.0466666668 0
0.03999999912 -0.0466666668 0
0.02666666732 -0.0466666668 0
0.01333333364 -0.0466666668 0
0.0 -0.0466666668 0
0.400000004 -0.0599999988 0
0.3866666556 -0.0599999988 0
0.3733333348 -0.0599999988 0
0.3600000144 -0.0599999988 0
0.346666664 -0.0599999988 0
0.3333333432 -0.0599999988 0
0.3199999928 -0.0599999988 0
0.3066666724 -0.0599999988 0
0.293333322 -0.0599999988 0
0.2800000012 -0.0599999988 0
0.2666666804 -0.0599999988 0
0.25333333 -0.0599999988 0
0.2399999948 -0.0599999988 0
0.226666674 -0.0599999988 0
0.2133333384 -0.0599999988 0
0.2000000028 -0.0599999988 0
0.1866666676 -0.0599999988 0
0.173333332 -0.0599999988 0
0.1599999964 -0.0599999988 0
0.1466666608 -0.0599999988 0
0.1333333404 -0.0599999988 0
0.1199999972 -0.0599999988 0
0.1066666692 -0.0599999988 0
0.0933333336 -0.0599999988 0
0.0799999984 -0.0599999988 0
0.06666667 -0.0599999988 0
0.0533333348 -0.0599999988 0
0.03999999912 -0.0599999988 0
0.02666666732 -0.0599999988 0
0.01333333364 -0.0599999988 0
0.0 -0.0599999988 0
0.400000004 -0.0733333304 0
0.3866666556 -0.0733333304 0
0.3733333348 -0.0733333304 0
0.3600000144 -0.0733333304 0
0.346666664 -0.0733333304 0
0.3333333432 -0.0733333304 0
0.3199999928 -0.0733333304 0
0.3066666724 -0.0733333304 0
0.293333322 -0.0733333304 0
0.2800000012 -0.0733333304 0
0.2666666804 -0.0733333304 0
0.25333333 -0.0733333304 0
0.2399999948 -0.0733333304 0
0.226666674 -0.0733333304 0
0.2133333384 -0.0733333304 0
0.2000000028 -0.0733333304 0
0.1866666676 -0.0733333304 0
0.173333332 -0.0733333304 0
0.1599999964 -0.0733333304 0
0.1466666608 -0.0733333304 0
0.1333333404 -0.0733333304 0
0.1199999972 -0.0733333304 0
0.1066666692 -0.0733333304 0
0.0933333336 -0.0733333304 0
0.0799999984 -0.0733333304 0
0.06666667 -0.0733333304 0
0.0533333348 -0.0733333304 0
0.03999999912 -0.0733333304 0
0.02666666732 -0.0733333304 0
0.01333333364 -0.0733333304 0
0.0 -0.0733333304 0
0.400000004 -0.086666666 0
0.3866666556 -0.086666666 0
0.3733333348 -0.086666666 0
0.3600000144 -0.086666666 0
0.346666664 -0.086666666 0
0.3333333432 -0.086666666 0
0.3199999928 -0.086666666 0
0.3066666724 -0.086666666 0
0.293333322 -0.086666666 0
0.2800000012 -0.086666666 0
0.2666666804 -0.086666666 0
0.25333333 -0.086666666 0
0.2399999948 -0.086666666 0
0.226666674 -0.086666666 0
0.2133333384 -0.086666666 0
0.2000000028 -0.086666666 0
0.1866666676 -0.086666666 0
0.173333332 -0.086666666 0
0.1599999964 -0.086666666 0
0.1466666608 -0.086666666 0
0.1333333404 -0.086666666 0
0.1199999972 -0.086666666 0
0.1066666692 -0.086666666 0
0.0933333336 -0.086666666 0
0.0799999984 -0.086666666 0
0.06666667 -0.086666666 0
0.0533333348 -0.086666666 0
0.03999999912 -0.086666666 0
0.02666666732 -0.086666666 0
0.01333333364 -0.086666666 0
0.0 -0.086666666 0
0.400000004 -0.1000000016 0
0.3866666556 -0.1000000016 0
0.3733333348 -0.1000000016 0
0.3600000144 -0.1000000016 0
0.346666664 -0.1000000016 0
0.3333333432 -0.1000000016 0
0.3199999928 -0.1000000016 0
0.3066666724 -0.1000000016 0
0.293333322 -0.1000000016 0
0.2800000012 -0.1000000016 0
0.2666666804 -0.1000000016 0
0.25333333 -0.1000000016 0
0.2399999948 -0.1000000016 0
0.226666674 -0.1000000016 0
0.2133333384 -0.1000000016 0
0.2000000028 -0.1000000016 0
0.1866666676 -0.1000000016 0
0.173333332 -0.1000000016 0
0.1599999964 -0.1000000016 0
0.1466666608 -0.1000000016 0
0.1333333404 -0.1000000016 0
0.1199999972 -0.1000000016 0
0.1066666692 -0.1000000016 0
0.0933333336 -0.1000000016 0
0.0799999984 -0.1000000016 0
0.06666667 -0.1000000016 0
0.0533333348 -0.1000000016 0
0.03999999912 -0.1000000016 0
0.02666666732 -0.1000000016 0
0.01333333364 -0.1000000016 0
0.0 -0.1000000016 0
0.400000004 -0.1133333372 0
0.3866666556 -0.1133333372 0
0.3733333348 -0.1133333372 0
0.3600000144 -0.1133333372 0
0.346666664 -0.1133333372 0
0.3333333432 -0.1133333372 0
0.3199999928 -0.1133333372 0
0.3066666724 -0.1133333372 0
0.293333322 -0.1133333372 0
0.2800000012 -0.1133333372 0
0.2666666804 -0.1133333372 0
0.25333333 -0.1133333372 0
0.2399999948 -0.1133333372 0
0.226666674 -0.1133333372 0
0.2133333384 -0.1133333372 0
0.2000000028 -0.1133333372 0
0.1866666676 -0.1133333372 0
0.173333332 -0.1133333372 0
0.1599999964 -0.1133333372 0
0.1466666608 -0.1133333372 0
0.1333333404 -0.1133333372 0
0.1199999972 -0.1133333372 0
0.1066666692 -0.1133333372 0
0.0933333336 -0.1133333372 0
0.0799999984 -0.1133333372 0
0.06666667 -0.1133333372 0
0.0533333348 -0.1133333372 0
0.03999999912 -0.1133333372 0
0.02666666732 -0.1133333372 0
0.01333333364 -0.1133333372 0
0.0 -0.1133333372 0
0.400000004 -0.1266666652 0
0.3866666556 -0.1266666652 0
0.3733333348 -0.1266666652 0
[...]
POINT_DATA 961
SCALARS Temp float 1
LOOKUP_TABLE default
0.7193972802117946
0.7481302310735806
0.7687500316975704
0.7837426634294248
0.7947279048293195
0.8028164740438132
0.8087991329768514
0.8132450414807333
0.8165684569267357
0.8190729103368134
0.8209834436462556
0.8224689631094552
0.8236585484172133
0.8246541455087505
0.8255400371763508
0.8263903559376509
0.8272759637068886
0.8282707759946046
0.8294584058309613
0.8309397645414307
0.8328423183669992
0.8353322752638789
0.8386301194370196
0.8430326832662968
0.8489427793090542
0.8569112533906731
0.8676968979671089
0.8823541041249656
0.9023663730896658
0.9298866950707674
0.9683302549683566
0.7593102054687405
0.7874848919091857
0.8078832207245039
0.8227937850483007
0.8337413044094462
0.8418143882061742
0.8477923814803884
0.8522390104024621
0.8555656930485924
0.8580744830676541
0.8599896638742086
0.861479784896585
0.8626737995716536
0.8636736511211933
0.864563688277281
0.8654181499107003
0.8663080190275297
0.8673073315905473
0.868499802272903
0.8699863985595145
0.8718945551037677
0.8743902796428585
0.8776935652335952
0.8821002157350102
0.888011052261878
0.895973126945369
0.906737942522848
0.9213448217156016
0.9412458928989801
0.9684856287436207
1.006025286088354
2.6279961895182335
2.6321819788298138
2.64384788980164
2.6546073604302967
2.66350456666053
2.6705834275573372
2.676125969267039
2.6804366508588178
2.683785529950539
2.68639674510039
2.6884516335504482
2.6900959953054486
2.6914479657870456
2.6926053790445352
2.6936523205978498
2.6946649866597565
2.695717133367241
2.6968854210302813
2.6982549421659607
2.6999252768446196
2.702017413474684
2.7046817641812506
2.708107413038601
2.7125322336610944
2.7182522964521554
2.7256257422611547
2.7350572533619495
2.7469218108777076
2.7612771875933544
2.776838222822486
2.7824248005422048
4.473393610992562
4.475677855789699
4.481284263002969
4.488289659197898
4.494931799663067
4.50069034488512
4.505480744093911
4.509383592300595
4.512532183082368
4.515066995120056
4.517118339739568
4.51880117597131
4.520215330472736
4.521448043004693
4.5225774155699545
4.523676194829013
4.524815688313448
4.526069756789564
4.527518914828232
4.529254550486797
4.531383174230083
4.534030401068583
4.5373437939787005
4.54149279359673
4.546661502525593
4.55302519874567
4.560689462582678
4.569539741210629
4.578879391237924
4.586356079325556
4.58940232414471
6.313340711097389
6.31455634071266
6.317841676178611
6.322289907595126
6.327026897087484
6.331477775385897
6.335405931247562
6.338755493905291
6.34155866079217
6.343885482402846
6.345818532045417
6.347440856692279
6.348831057582218
6.350062158588916
6.351202434363888
6.352317265476918
6.353471523109459
6.354732176262466
6.35617092310096
6.357866614129661
6.359907091108181
6.362389773729774
6.365419666978196
6.369102469816439
6.3735282152977915
6.378737164174418
6.384652666356049
6.390957144951048
6.396882082684923
6.401259903357097
6.4028800729727315
8.1499990372435
8.150739421214714
8.152788043812244
8.155721093687585
8.159048062247019
8.162377666080467
8.165470968825788
8.168220156657402
8.170600310730752
8.172633008389978
8.174363266409403
8.17584614459789
8.177139636052349
8.178301431276358
8.179387963295145
8.180454780124322
8.181557645396824
8.182753934462186
8.184103992964815
8.185672087146086
8.187526431324336
8.189737509696196
8.192373360222962
8.195489813471465
8.199112371944144
8.203205182376792
8.207622356652339
8.21204341629827
8.215944989287157
8.218671646402278
8.219657324246867
9.984443402404247
9.98491491855758
9.986244233936235
9.98820930173908
9.990532548300799
9.992960450275216
9.995309143952737
9.997470854311452
9.999399035572017
10.00108837544735
10.002558544791363
10.003842944759425
10.004981721792765
10.006017880732607
10.00699544374039
10.007958900983143
10.008953404586954
10.01002526154681
10.01122235490935
10.012594087843626
10.014190332815808
10.01605868184329
10.018238951762406
10.02075364945815
10.023592758863536
10.026691848485227
10.029905310550795
10.032986372137515
10.03559567976653
10.037362084582181
10.037988845043623
11.817147615649844
11.817451285327627
11.81831687631839
11.819623204390489
11.821210206985771
11.822919709760516
11.824624095453595
11.82623749340499
11.827713416443139
11.829035994029933
11.83021038080204
11.83125486732129
11.832195307833082
11.833061607754221
11.833885741727839
11.834700815434788
11.835540755098739
11.83644024877918
11.837434607873764
11.838559189951475
11.839847953116774
11.841330616688552
11.843027753636848
11.844943201476028
11.847053388451824
11.849294380403652
11.851550123577194
11.853649171595034
11.855379610781009
11.85652725412298
11.856930041444427
13.648347004975596
13.648534391211074
13.649072436411528
13.649895642537706
13.650914512125706
13.652036032343474
13.653180070812631
13.654287981879534
13.655323975253701
13.656271888533631
13.657130304943898
13.657907826042106
13.658619346810198
13.65928348048475
13.65992094589373
13.660553659915305
13.661204271403337
13.661895871529714
13.662651637134555
13.663494145331459
13.66444406224292
13.665517878542744
13.66672433344586
13.668059347962345
13.669499621028733
13.670996011886835
13.672469194836284
13.673811404119823
13.674897911166767
13.675608859082216
13.675856594529776
15.478156238225703
15.478254183648035
15.478536976437315
15.478974296909648
15.47952381697049
15.480140127091016
15.480782416302187
15.48141912670964
15.482029432495342
15.482602380815882
15.483134914744973
15.48362967312889
15.484093096534528
15.484534019333154
15.48496271527153
15.485390296531467
15.485828342234548
15.486288617193738
15.486782750350871
15.487321732792658
15.48791508320279
15.488569529029556
15.489287061309287
15.490062364124537
15.490879832017061
15.491710879098164
15.492512775021392
15.493230575087185
15.493803328047353
15.494174300079928
15.494302885399447
17.30663027822499
17.306650915139144
17.30671156044366
17.30680865044347
17.30693694573993
17.307090355762707
17.307262752964135
17.307448603241447
17.307643350907558
17.307843559347397
17.308046882003694
17.308251925744354
17.30845807008611
17.30866528289349
17.308873945775947
17.309084694918862
17.309298276260467
17.309515403213847
17.30973660752026
17.309962072469137
17.310191439771728
17.310423589141816
17.31065639383015
17.31088648619566
17.311109076238406
17.311317909010267
17.31150545590422
17.311663422464434
17.311783592450208
17.311858910576056
17.31188458359817
17.408648083592706
17.408665117139368
17.408715360201438
17.408796375686958
17.40890451549684
17.409035424557764
17.40918456636553
17.409347663616558
17.409521006747052
17.40970160994062
17.409887248484576
17.410076405277852
17.410268166625748
17.410462097770065
17.410658110412122
17.410856330982348
17.411056973464603
17.41126021083662
17.411466041533917
17.411674146339436
17.411883733376577
17.412093376054365
17.412300851394853
17.41250300995805
17.412695707535068
17.41287385348603
17.413031623545336
17.413162867528182
17.413261700493237
17.413323201369753
17.413344086548083
17.510560221151767
17.510574558585773
17.51061697139889
17.51068574346429
17.510778268317157
17.510891366514073
17.511021631004873
17.511165734038478
17.511320663353164
17.51148386335649
17.511653296521935
17.511827434208882
17.512005201085103
17.512185894280325
17.512369086319747
17.512554520668022
17.512742005920522
17.512931306391188
17.513122029390626
17.513313508666375
17.513504685408957
17.51369399402424
17.513879260305348
17.514057637426056
17.51422559822302
17.514379017333237
17.51451336493041
17.514624019383096
17.514706680279023
17.514757827515613
17.514775145984334
17.61237180066403
17.612384071109147
17.612420451503557
17.6124797007451
17.61255991097066
17.612658712624796
17.612773505492683
17.6129016731158
17.613040759800963
17.613188588008157
17.613343323248067
17.613503486323847
17.613667927115156
17.61383577403216
17.61400636486532
17.614179166699856
17.614353691532305
17.614529407367883
17.614705647336724
17.61488151862463
17.61505581441198
17.615226936361367
17.615392833839113
17.615550979470324
17.61569839082022
17.615831718359424
17.615947407866123
17.616041935241675
17.61611209632564
17.616155314114458
17.616169913767543
17.714086657623334
17.714097310343057
17.71412895057824
17.71418065801097
17.714251003288148
17.714338183579002
17.71444017976287
17.71455490716121
17.714680347014983
17.714814640031292
17.71495614589272
17.71510346424975
17.71525542547235
17.71541106050703
17.71556955288931
17.715730179104206
17.715892243667348
17.716055009623183
17.716217628041697
17.716379069380082
17.71653806046199
17.71669303396533
17.716842094762125
17.71698301790334
17.71711328227683
17.71723015206959
17.717330807500716
17.71741251968573
17.717472855569383
17.717509887134963
17.717522373769008
17.815707692399542
17.815717056990056
17.81574491032971
17.81579055332137
17.81585289043304
17.815930521127996
17.816021848540917
17.81612518627563
17.816238855871966
17.816361259695082
17.816490932044026
17.816626562322945
17.816766995163096
17.816911213747098
17.817058307475154
17.817207428787864
17.817357744870538
17.817508385183
17.817658388663162
17.817806653743
17.81795189480124
17.818092610921624
17.818227069625106
17.818353316740883
17.818469212887408
17.818572504041505
17.818660924628414
17.818732327535322
17.8187848304061
17.818816960492285
17.818827778193555
17.913980445982844
17.91398876703239
17.914013543961993
17.914054233179748
17.914109976071913
17.914179661783596
17.914262003502255
17.91435561478291
17.914459081969554
17.91457102034092
17.914690116559782
17.9148151508985
17.914945002246643
17.915078640209334
17.915215104172514
17.9153534730092
17.915492830390274
17.915632226533884
17.9157706400624
17.915906942930516
17.916039871592822
17.916168009214793
17.916289780266283
17.91640346604457
17.916507239543645
17.916599224509262
17.916677575937825
17.916740576981987
17.916786744474788
17.916814930800708
17.916824409213145
18.005626835787425
18.00563429778033
18.00565653617088
18.00569311862629
18.005743357429857
18.005806353288616
18.005881049658303
18.00596628778881
18.006060860819957
18.006163556833233
18.00627319353226
18.006388638256542
18.00650881531513
18.006632703747854
18.00675932460379
18.006887720520908
18.007016931830634
18.007145969753633
18.007273789959203
18.00739926906535
18.007521186683682
18.00763821685252
18.00774892922189
18.007851806686876
18.007945276789627
18.00802776025579
18.008097733651944
18.008153801980278
18.00819477562307
18.008219743051093
18.00822813078497
18.090614761380902
18.090621508676918
18.090641630938173
18.09067477664377
18.090720383085227
18.09077770739783
18.09084586580598
18.090923873712995
18.0910106864278
18.09110523219623
18.091206440372392
18.09131325890677
18.091424662599454
18.09153965448643
18.091657258988143
18.09177650893017
18.091896430002322
18.09201602291127
18.092134246029303
18.092250000664194
18.092362120998715
18.092469371738876
18.092570453157084
18.09266401892476
18.092748703540636
18.09282316190598
18.092886118167165
18.092936420488414
18.092973097801217
18.092995412446843
18.093002903014806
18.168914429230313
18.168920577249548
18.16893892220584
18.1689691720811
18.169010856786056
18.16906335046459
18.169125900265662
18.169197655857733
18.169277700409502
18.169365076055797
18.169458806822885
18.169557913724177
18.16966142319606
18.169768370783096
18.169877798452113
18.169988747143407
18.170100247567987
18.17021130921145
18.17032090988584
18.17042798751543
18.170531435713876
18.17063010554663
18.17072281271385
18.17080835462867
18.170885534020695
18.170953191166326
18.17101024215569
18.171055720591703
18.171088819955912
18.17110893227072
18.171115679192628
18.24049830428242
18.240503947265058
18.240520792368855
18.24054859192733
18.24058694527242
18.240635315005647
18.240693048424355
18.2407593995176
18.24083355283858
18.240914643308262
18.24100177501288
18.24109403421843
18.241190497630654
18.24129023751845
18.241392321962387
18.24149581146624
18.241599754480625
18.24170318154899
18.241805100003194
18.241904490507327
18.242000306598722
18.242091479115814
18.24217692446177
18.242255560519713
18.242326326859953
18.242388211088993
18.242440279074035
18.24248170703317
18.242511813581178
18.242530088543017
18.242536215880907
18.30534108889169
18.305346305373984
18.305361882442227
18.30538760584144
18.305423127465225
18.3054679774145
18.3055215802298
18.305583271516692
18.30565231662882
18.3057279262587
18.305809272037397
18.305895497822384
18.30598572763034
18.30607907164137
18.306174628497843
18.3062714848619
18.306368714410173
18.306465375775147
18.306560511009273
18.30665314554765
18.306742290491638
18.30682694871617
18.30690612357687
18.30697883355343
18.307044129574095
18.307101116725107
18.307148978383253
18.3071870012274
18.307214599830782
18.307231338470373
18.30723694830995
18.36342010718689
18.36342496392703
18.36343947046094
18.36346343791996
18.363496558318428
18.363538413647824
18.363588488412535
18.363646182405482
18.363710825599647
18.363781690617813
18.363858005881387
18.36393896550762
18.364023736873094
18.364111467139217
18.36420128696916
18.364292312198632
18.36438364534271
18.364474376295973
18.364563583514666
18.36465033639735
18.36473369943312
18.36481273932666
18.364886533779575
18.364954184909532
18.36501483419693
18.365067680571862
18.36511199994463
18.36514716499163
18.365172664335773
18.36518811933511
18.36519329718789
18.41471458381197
18.414719138657205
18.414732746135016
18.414755236775544
18.414786333378785
18.414825658011267
18.414872741898847
18.41492703543695
18.414987920311535
18.41505471966612
18.41512670938789
18.415203126907077
18.415283178404284
18.415366045627216
18.415450890576686
18.415536858674667
18.415623082063473
18.415708682281654
18.415792773376417
18.41587446596688
18.41595287263477
18.416027115631
18.416096335531044
18.416159703552903
18.416216434581585
18.4162658024519
18.41630715601157
18.416339935046
18.416363685514387
18.416378072719674
18.41638289149725
18.459206618523023
18.459210922532332
18.459223782566035
18.45924504400004
18.459274453282568
18.45931166344257
18.459356242089786
18.45940767943877
18.459465398409236
18.459528763102256
18.459597088682372
18.459669649324205
18.459745685102146
18.459824408954205
18.45990501201989
18.45998666785549
18.4600685369928
18.46014977100853
18.460229516986136
18.46030692272941
18.460381142961772
18.460451347334836
18.460516728862874
18.460576515293578
18.460629980605606
18.46067645813916
18.460715354057903
18.460746160424556
18.46076846755965
18.460781974596383
18.460786497576162
18.496880285402526
18.496884384457452
18.49689663347829
18.49691688914768
18.496944915983637
18.496980390794103
18.497022909324862
18.497071992863262
18.49712709687251
18.497187618236833
18.497252904096054
18.497322259141022
18.4973949522342
18.497470223433435
18.497547289760448
18.49762535013698
18.49770359081389
18.497781190407288
18.497857325286766
18.497931175560566
18.498001931786135
18.4980688031088
18.498131025445968
18.49818787207266
18.49823866392782
18.498282781112696
18.498319674417047
18.498348876303886
18.498370011176895
18.498382804049633
18.49838708714018
18.527722375364164
18.527726311411406
18.527738074294323
18.527757529179272
18.52778445418059
18.52781854407552
18.527859415996414
18.527906615029814
18.5279596218014
18.528017858837107
18.528080698630156
18.528147470449763
18.528217466744138
18.528289950174944
18.528364159663656
18.528439315814165
18.528514626930836
18.52858929471123
18.5286625202572
18.52873351056511
18.528801485548914
18.528865686210537
18.528925382585086
18.528979883699463
18.52902854697201
18.529070788496355
18.529106093149558
18.529134024063094
18.52915423138782
18.52916645961757
18.52917055311781
18.551722030903363
18.551725842943565
18.551737235898674
18.551756081097444
18.551782166552663
18.551815200169674
18.55185481477962
18.55190057304622
18.55195197431972
18.552008460381582
18.552069422966454
18.55213421021993
18.552202132934855
18.552272471573076
18.552344482485246
18.55241740365194
18.552490461088315
18.552562874969333
18.55263386604672
18.552702662459524
18.55276850694
18.55283066496734
18.552888432509498
18.552941145505706
18.55298818860252
18.553029004563975
18.553063103372846
18.553090070636415
18.553109575301228
18.55312137604068
18.553125326045464
18.568870662768344
18.568874387666387
18.56888552061511
18.568903937127292
18.568929431948053
18.568961721935544
18.569000450665033
18.569045192885696
18.569095460894637
18.569150709877277
18.56921034506616
18.5692737279624
18.569340182454614
18.56940900182135
18.569479455053223
18.569550792791464
18.56962225397252
18.569693072222428
18.569762482523984
18.569829728219617
18.56989406831782
18.569954785614858
18.570011194283357
18.57006264902151
18.57010855333707
18.570148368369658
18.57018162132122
18.570207913157322
18.570226925630386
18.570238427053663
18.57024227660889
18.57916228817854
18.57916596135018
18.579176939943196
18.579195101898048
18.579220245870705
18.579252093929323
18.57929029591672
18.57933443365365
18.579384027041414
18.579438539172855
18.579497383283737
18.579559928837885
18.579625507576363
18.57969342050439
18.579762944266907
18.579833337193996
18.579903846075347
18.579973712700994
18.58004218066345
18.580108502461915
18.58017194685767
18.580231806969095
18.580287407765404
18.580338115019003
18.58038334332645
18.580422564592336
18.58045531607581
18.58048120769056
18.580499928635426
18.58051125282092
18.58051504290407
18.582593223640412
18.582596879661708
18.582607807073604
18.582625884612405
18.5826509122169
18.58268261366576
18.582720640861954
18.582764577954347
18.582813947352243
18.582868214762318
18.582926796072506
18.582989063392347
18.58305435107939
18.583121962720096
18.583191177522007
18.583261256392838
18.58333144875597
18.583400999137623
18.583469154011294
18.58353516893366
18.58359831591439
18.583657891501034
18.58371322424082
18.58376368356771
18.583808687737243
18.583847712199862
18.583880297522455
18.583906056558035
18.583924680949092
18.583935946441613
18.583939716831726
