# vtk DataFile Version 2.0
Unstructured Grid Example
ASCII
DATASET UNSTRUCTURED_GRID

POINTS 961 float
0.400000004 0.01999999956 0
0.3866666556 0.01999999956 0
0.3733333348 0.01999999956 0
0.3600000144 0.01999999956 0
0.346666664 0.01999999956 0
0.3333333432 0.01999999956 0
0.3199999928 0.01999999956 0
0.3066666724 0.01999999956 0
0.293333322 0.01999999956 0
0.2800000012 0.01999999956 0
0.2666666804 0.01999999956 0
0.25333333 0.01999999956 0
0.2399999948 0.01999999956 0
0.226666674 0.01999999956 0
0.2133333384 0.01999999956 0
0.2000000028 0.01999999956 0
0.1866666676 0.01999999956 0
0.173333332 0.01999999956 0
0.1599999964 0.01999999956 0
0.1466666608 0.01999999956 0
0.1333333404 0.01999999956 0
0.1199999972 0.01999999956 0
0.1066666692 0.01999999956 0
0.0933333336 0.01999999956 0
0.0799999984 0.01999999956 0
0.06666667 0.01999999956 0
0.0533333348 0.01999999956 0
0.03999999912 0.01999999956 0
0.02666666732 0.01999999956 0
0.01333333364 0.01999999956 0
0.0 0.01999999956 0
0.400000004 0.00666666684 0
0.3866666556 0.00666666684 0
0.3733333348 0.00666666684 0
0.3600000144 0.00666666684 0
0.346666664 0.00666666684 0
0.3333333432 0.00666666684 0
0.3199999928 0.00666666684 0
0.3066666724 0.00666666684 0
0.293333322 0.00666666684 0
0.2800000012 0.00666666684 0
0.2666666804 0.00666666684 0
0.25333333 0.00666666684 0
0.2399999948 0.00666666684 0
0.226666674 0.00666666684 0
0.2133333384 0.00666666684 0
0.2000000028 0.00666666684 0
0.1866666676 0.00666666684 0
0.173333332 0.00666666684 0
0.1599999964 0.00666666684 0
0.1466666608 0.00666666684 0
0.1333333404 0.00666666684 0
0.1199999972 0.00666666684 0
0.1066666692 0.00666666684 0
0.0933333336 0.00666666684 0
0.0799999984 0.00666666684 0
0.06666667 0.00666666684 0
0.0533333348 0.00666666684 0
0.03999999912 0.00666666684 0
0.02666666732 0.00666666684 0
0.01333333364 0.00666666684 0
0.0 0.00666666684 0
0.400000004 -0.00666666684 0
0.3866666556 -0.00666666684 0
0.3733333348 -0.00666666684 0
0.3600000144 -0.00666666684 0
0.346666664 -0.00666666684 0
0.3333333432 -0.00666666684 0
0.3199999928 -0.00666666684 0
0.3066666724 -0.00666666684 0
0.293333322 -0.00666666684 0
0.2800000012 -0.00666666684 0
0.2666666804 -0.00666666684 0
0.25333333 -0.00666666684 0
0.2399999948 -0.00666666684 0
0.226666674 -0.00666666684 0
0.2133333384 -0.00666666684 0
0.2000000028 -0.00666666684 0
0.1866666676 -0.00666666684 0
0.173333332 -0.00666666684 0
0.1599999964 -0.00666666684 0
0.1466666608 -0.00666666684 0
0.1333333404 -0.00666666684 0
0.1199999972 -0.00666666684 0
0.1066666692 -0.00666666684 0
0.0933333336 -0.00666666684 0
0.0799999984 -0.00666666684 0
0.06666667 -0.00666666684 0
0.0533333348 -0.00666666684 0
0.03999999912 -0.00666666684 0
0.02666666732 -0.00666666684 0
0.01333333364 -0.00666666684 0
0.0 -0.00666666684 0
0.400000004 -0.01999999956 0
0.3866666556 -0.01999999956 0
0.3733333348 -0.01999999956 0
0.3600000144 -0.01999999956 0
0.346666664 -0.01999999956 0
0.3333333432 -0.01999999956 0
0.3199999928 -0.01999999956 0
0.3066666724 -0.01999999956 0
0.293333322 -0.01999999956 0
0.2800000012 -0.01999999956 0
0.2666666804 -0.01999999956 0
0.25333333 -0.01999999956 0
0.2399999948 -0.01999999956 0
0.226666674 -0.01999999956 0
0.2133333384 -0.01999999956 0
0.2000000028 -0.01999999956 0
0.1866666676 -0.01999999956 0
0.173333332 -0.01999999956 0
0.1599999964 -0.01999999956 0
0.1466666608 -0.01999999956 0
0.1333333404 -0.01999999956 0
0.1199999972 -0.01999999956 0
0.1066666692 -0.01999999956 0
0.0933333336 -0.01999999956 0
0.0799999984 -0.01999999956 0
0.06666667 -0.01999999956 0
0.0533333348 -0.01999999956 0
0.03999999912 -0.01999999956 0
0.02666666732 -0.01999999956 0
0.01333333364 -0.01999999956 0
0.0 -0.01999999956 0
0.400000004 -0.03333333508 0
0.3866666556 -0.03333333508 0
0.3733333348 -0.03333333508 0
0.3600000144 -0.03333333508 0
0.346666664 -0.03333333508 0
0.3333333432 -0.03333333508 0
0.3199999928 -0.03333333508 0
0.3066666724 -0.03333333508 0
0.293333322 -0.03333333508 0
0.2800000012 -0.03333333508 0
0.2666666804 -0.03333333508 0
0.25333333 -0.03333333508 0
0.2399999948 -0.03333333508 0
0.226666674 -0.03333333508 0
0.2133333384 -0.03333333508 0
0.2000000028 -0.03333333508 0
0.1866666676 -0.03333333508 0
0.173333332 -0.03333333508 0
0.1599999964 -0.03333333508 0
0.1466666608 -0.03333333508 0
0.1333333404 -0.03333333508 0
0.1199999972 -0.03333333508 0
0.1066666692 -0.03333333508 0
0.0933333336 -0.03333333508 0
0.0799999984 -0.03333333508 0
0.06666667 -0.03333333508 0
0.0533333348 -0.03333333508 0
0.03999999912 -0.03333333508 0
0.02666666732 -0.03333333508 0
0.01333333364 -0.03333333508 0
0.0 -0.03333333508 0
0.400000004 -0.0466666668 0
0.3866666556 -0.0466666668 0
0.3733333348 -0.0466666668 0
0.3600000144 -0.0466666668 0
0.346666664 -0.0466666668 0
0.3333333432 -0.0466666668 0
0.3199999928 -0.0466666668 0
0.3066666724 -0.0466666668 0
0.293333322 -0.0466666668 0
0.2800000012 -0.0466666668 0
0.2666666804 -0.0466666668 0
0.25333333 -0.0466666668 0
0.2399999948 -0.0466666668 0
0.226666674 -0.0466666668 0
0.2133333384 -0.0466666668 0
0.2000000028 -0.0466666668 0
0.1866666676 -0.0466666668 0
0.173333332 -0.0466666668 0
0.1599999964 -0.0466666668 0
0.1466666608 -0.0466666668 0
0.1333333404 -0.0466666668 0
0.1199999972 -0.0466666668 0
0.1066666692 -0.0466666668 0
0.0933333336 -0.0466666668 0
0.0799999984 -0.0466666668 0
0.06666667 -0.0466666668 0
0.0533333348 -0.0466666668 0
0.03999999912 -0.0466666668 0
0.02666666732 -0.0466666668 0
0.01333333364 -0.0466666668 0
0.0 -0.0466666668 0
0.400000004 -0.0599999988 0
0.3866666556 -0.0599999988 0
0.3733333348 -0.0599999988 0
0.3600000144 -0.0599999988 0
0.346666664 -0.0599999988 0
0.3333333432 -0.0599999988 0
0.3199999928 -0.0599999988 0
0.3066666724 -0.0599999988 0
0.293333322 -0.0599999988 0
0.2800000012 -0.0599999988 0
0.2666666804 -0.0599999988 0
0.25333333 -0.0599999988 0
0.2399999948 -0.0599999988 0
0.226666674 -0.0599999988 0
0.2133333384 -0.0599999988 0
0.2000000028 -0.0599999988 0
0.1866666676 -0.0599999988 0
0.173333332 -0.0599999988 0
0.1599999964 -0.0599999988 0
0.1466666608 -0.0599999988 0
0.1333333404 -0.0599999988 0
0.1199999972 -0.0599999988 0
0.1066666692 -0.0599999988 0
0.0933333336 -0.0599999988 0
0.0799999984 -0.0599999988 0
0.06666667 -0.0599999988 0
0.0533333348 -0.0599999988 0
0.03999999912 -0.0599999988 0
0.02666666732 -0.0599999988 0
0.01333333364 -0.0599999988 0
0.0 -0.0599999988 0
0.400000004 -0.0733333304 0
0.3866666556 -0.0733333304 0
0.3733333348 -0.0733333304 0
0.3600000144 -0.0733333304 0
0.346666664 -0.0733333304 0
0.3333333432 -0.0733333304 0
0.3199999928 -0.0733333304 0
0.3066666724 -0.0733333304 0
0.293333322 -0.0733333304 0
0.2800000012 -0.0733333304 0
0.2666666804 -0.0733333304 0
0.25333333 -0.0733333304 0
0.2399999948 -0.0733333304 0
0.226666674 -0.0733333304 0
0.2133333384 -0.0733333304 0
0.2000000028 -0.0733333304 0
0.1866666676 -0.0733333304 0
0.173333332 -0.0733333304 0
0.1599999964 -0.0733333304 0
0.1466666608 -0.0733333304 0
0.1333333404 -0.0733333304 0
0.1199999972 -0.0733333304 0
0.1066666692 -0.0733333304 0
0.0933333336 -0.0733333304 0
0.0799999984 -0.0733333304 0
0.06666667 -0.0733333304 0
0.0533333348 -0.0733333304 0
0.03999999912 -0.0733333304 0
0.02666666732 -0.0733333304 0
0.01333333364 -0.0733333304 0
0.0 -0.0733333304 0
0.400000004 -0.086666666 0
0.3866666556 -0.086666666 0
0.3733333348 -0.086666666 0
0.3600000144 -0.086666666 0
0.346666664 -0.086666666 0
0.3333333432 -0.086666666 0
0.3199999928 -0.086666666 0
0.3066666724 -0.086666666 0
0.293333322 -0.086666666 0
0.2800000012 -0.086666666 0
0.2666666804 -0.086666666 0
0.25333333 -0.086666666 0
0.2399999948 -0.086666666 0
0.226666674 -0.086666666 0
0.2133333384 -0.086666666 0
0.2000000028 -0.086666666 0
0.1866666676 -0.086666666 0
0.173333332 -0.086666666 0
0.1599999964 -0.086666666 0
0.1466666608 -0.086666666 0
0.1333333404 -0.086666666 0
0.1199999972 -0.086666666 0
0.1066666692 -0.086666666 0
0.0933333336 -0.086666666 0
0.0799999984 -0.086666666 0
0.06666667 -0.086666666 0
0.0533333348 -0.086666666 0
0.03999999912 -0.086666666 0
0.02666666732 -0.086666666 0
0.01333333364 -0.086666666 0
0.0 -0.086666666 0
0.400000004 -0.1000000016 0
0.3866666556 -0.1000000016 0
0.3733333348 -0.1000000016 0
0.3600000144 -0.1000000016 0
0.346666664 -0.1000000016 0
0.3333333432 -0.1000000016 0
0.3199999928 -0.1000000016 0
0.3066666724 -0.1000000016 0
0.293333322 -0.1000000016 0
0.2800000012 -0.1000000016 0
0.2666666804 -0.1000000016 0
0.25333333 -0.1000000016 0
0.2399999948 -0.1000000016 0
0.226666674 -0.1000000016 0
0.2133333384 -0.1000000016 0
0.2000000028 -0.1000000016 0
0.1866666676 -0.1000000016 0
0.173333332 -0.1000000016 0
0.1599999964 -0.1000000016 0
0.1466666608 -0.1000000016 0
0.1333333404 -0.1000000016 0
0.1199999972 -0.1000000016 0
0.1066666692 -0.1000000016 0
0.0933333336 -0.1000000016 0
0.0799999984 -0.1000000016 0
0.06666667 -0.1000000016 0
0.0533333348 -0.1000000016 0
0.03999999912 -0.1000000016 0
0.02666666732 -0.1000000016 0
0.01333333364 -0.1000000016 0
0.0 -0.1000000016 0
0.400000004 -0.1133333372 0
0.3866666556 -0.1133333372 0
0.3733333348 -0.1133333372 0
0.3600000144 -0.1133333372 0
0.346666664 -0.1133333372 0
0.3333333432 -0.1133333372 0
0.3199999928 -0.1133333372 0
0.3066666724 -0.1133333372 0
0.293333322 -0.1133333372 0
0.2800000012 -0.1133333372 0
0.2666666804 -0.1133333372 0
0.25333333 -0.1133333372 0
0.2399999948 -0.1133333372 0
0.226666674 -0.1133333372 0
0.2133333384 -0.1133333372 0
0.2000000028 -0.1133333372 0
0.1866666676 -0.1133333372 0
0.173333332 -0.1133333372 0
0.1599999964 -0.1133333372 0
0.1466666608 -0.1133333372 0
0.1333333404 -0.1133333372 0
0.1199999972 -0.1133333372 0
0.1066666692 -0.1133333372 0
0.0933333336 -0.1133333372 0
0.0799999984 -0.1133333372 0
0.06666667 -0.1133333372 0
0.0533333348 -0.1133333372 0
0.03999999912 -0.1133333372 0
0.02666666732 -0.1133333372 0
0.01333333364 -0.1133333372 0
0.0 -0.1133333372 0
0.400000004 -0.1266666652 0
0.3866666556 -0.1266666652 0
0.3733333348 -0.1266666652 0
[...]
POINT_DATA 961
SCALARS Temp float 1
LOOKUP_TABLE default
0.7174408655234061
0.7460956754054335
0.7666593966301847
0.7816112501292511
0.7925666096638762
0.8006331729275425
0.8065995514722921
0.8110333574377258
0.8143477217397099
0.8168453500697804
0.8187506724904815
0.8202321360516851
0.8214184695547663
0.8224113418448694
0.8232948066581462
0.8241427950602829
0.8250259764052915
0.826018065333043
0.827202447620467
0.8286797602824396
0.8305771230135475
0.8330602918397917
0.8363491513993764
0.8407397268358496
0.8466337352066946
0.8545805241980251
0.865336822536538
0.8799541535978623
0.8999119837964318
0.9273574476604861
0.9656964414118925
0.7572452539564902
0.7853433176587763
0.8056861692452628
0.820556178318475
0.8314739181163263
0.8395250377129709
0.845486762850812
0.8499212867695256
0.8532389088171585
0.8557408613363231
0.8576508179386446
0.8591368698258357
0.8603276198966378
0.8613247342944428
0.862212332524438
0.8630644517249797
0.8639518820214545
0.8649484581872529
0.8661376673746506
0.8676202026138675
0.8695231521061992
0.8720120722112671
0.8753063577626752
0.8797010081878012
0.8855957545247777
0.8935361610901188
0.904271686724826
0.9188388274286305
0.9386857621026057
0.9658514028893673
1.0032889527131816
2.62084965420454
2.6250240570587406
2.636658233084218
2.647388427876243
2.6562614170394023
2.663321000503688
2.6688484377721475
2.6731473602961744
2.676487091665588
2.679091161323949
2.6811404138315194
2.682780253186649
2.6841284940663592
2.685282705007037
2.6863267434208624
2.687336598877362
2.6883858275080783
2.6895508817140317
2.6909166231583956
2.692582361636987
2.694668757033871
2.697325812893781
2.700742099496855
2.7051548439275326
2.71085931173634
2.7182126700626643
2.7276185008566607
2.7394507656889107
2.7537670805788625
2.769285780795088
2.7748571599959
4.461228838711646
4.463506866386017
4.46909801171735
4.476084331599918
4.482708374117995
4.488451215265798
4.493228534726125
4.497120708923264
4.500260669605652
4.502788514155137
4.504834200312309
4.5065123753299865
4.507922595290069
4.509151863647399
4.510278070978184
4.511373767099062
4.5125100666184395
4.513760630431185
4.515205755125076
4.5169365811754805
4.519059330300166
4.521699276757151
4.525003583024113
4.529141229676494
4.534295819316476
4.54064215386327
4.548285527091657
4.557111698312168
4.566425919461307
4.573882255839826
4.576920209826937
6.296172545145905
6.297384861743443
6.300661241497798
6.305097340860036
6.309821399614831
6.314260112429782
6.318177512231392
6.321517881016765
6.32431332959259
6.326633718990269
6.3285613990927665
6.330179192242846
6.33156548721198
6.3327931106317985
6.333930152870462
6.335041818113481
6.336192802555559
6.33744989450216
6.338884598542096
6.340575552117667
6.342610359424175
6.345086176479162
6.348107723888189
6.35178041426566
6.356194036835506
6.361388743799379
6.367288094402022
6.373575376282738
6.379484163109617
6.383850054902817
6.385465810561334
8.127836450349225
8.128574811661577
8.13061783558727
8.133542863661045
8.136860721759614
8.140181191289669
8.14326598657247
8.146007588042083
8.148381145831776
8.15040817995807
8.15213358624982
8.153612276369731
8.154902087387308
8.15606055467821
8.157143959617205
8.158207701015083
8.159307392731321
8.16050025595624
8.161846474074176
8.163410140361275
8.16525928537207
8.167464203286718
8.170092748609648
8.17320060154335
8.176813196592835
8.18089477924411
8.185299859270742
8.189708830807177
8.193599746118304
8.1963189592765
8.197301946892495
9.957292452059615
9.95776267458418
9.95908834099833
9.96104800874495
9.963364859656282
9.96578606071554
9.968128249324824
9.970283944860004
9.972206729618897
9.973891307435803
9.975357297503162
9.9766380121157
9.977773490630799
9.978806623128932
9.979781314317165
9.980741935684962
9.981733518904097
9.982802247372783
9.983995876227834
9.985363676542885
9.986955387337577
9.988818473286976
9.99099264491484
9.993500349735363
9.99633160061369
9.999422142820295
10.002626765950149
10.00569936940493
10.008301523621503
10.010063089902708
10.010688134228419
11.785013078469575
11.78531590872316
11.786179105108332
11.787481813408933
11.789064407106624
11.79076914304686
11.792468752326526
11.794077599368643
11.79554932521588
11.796868104500232
11.798039080043834
11.799080495041624
11.800018135949284
11.800881829494157
11.801703466091631
11.802516064179692
11.803353460537002
11.80425025170521
11.805241655837595
11.806362937072047
11.807647963798313
11.80912637703052
11.810818696167669
11.812728750501476
11.814833034413786
11.817067789448668
11.819317279083881
11.821410524585916
11.823136189720813
11.824280670815837
11.824682348952688
13.611233025153034
13.611419885828777
13.611956420103741
13.612777308588843
13.613793298080772
13.614911629901913
13.616052391117119
13.61715709738463
13.618190057848953
13.619135156424
13.619990982778543
13.620766117872124
13.621475419147664
13.622137452330316
13.622772883116282
13.623403572066323
13.624052109761681
13.624741527898337
13.625494943571208
13.62633487570795
13.627281937336498
13.628352577251803
13.629555513702797
13.630886681395
13.632322845013721
13.63381499957611
13.635284036978883
13.63662248611704
13.637705958890834
13.638414925290656
13.638661970926325
15.436066655562486
15.436164316158287
15.436446284704036
15.436882324577285
15.437430223798163
15.438044697718263
15.438685048110873
15.43931980501091
15.43992820166765
15.440499317756492
15.44103010766449
15.44152320629779
15.441985040147223
15.442424423160654
15.442851604870611
15.443277671049328
15.443714173180688
15.444172847935057
15.444665296439364
15.445202483616868
15.44579390586896
15.44644627578912
15.447161582242675
15.447934526778381
15.448749549123118
15.449578143580597
15.450377698142988
15.451093419322532
15.451664523050528
15.452034430826972
15.452162647922497
17.259568790387068
17.25958935006153
17.259649767319825
17.25974648884975
17.2598742906447
17.260027100282056
17.260198808883445
17.26038389980379
17.260577832524863
17.260777182903205
17.26097961419633
17.261183740765798
17.26138894775415
17.261595207238905
17.261802904059653
17.26201267703741
17.26222527449594
17.262441412322787
17.26266162517996
17.262886100129716
17.26311448398712
17.26334566345321
17.263577521274613
17.263806702408104
17.264028433011774
17.26423647793629
17.26442333146301
17.26458072370698
17.26470046236239
17.26477551248014
17.26480109454677
17.361309217634705
17.36132618347347
17.361376225978418
17.361456915385304
17.36156461467386
17.361694982218676
17.361843495883228
17.362005892434144
17.362178475210598
17.36235826968146
17.36254306066106
17.36273133892619
17.36292219725546
17.36311520625115
17.363310282177007
17.363507555541062
17.363707244215682
17.363909525179103
17.364114401293683
17.36432155853625
17.364530211365807
17.36473894106181
17.364945534450964
17.365146854141173
17.365338770364602
17.365516209148396
17.365673364509906
17.365804105028037
17.36590256337513
17.3659638330261
17.365984640004136
17.462944309124453
17.46295858568331
17.46300081774112
17.463069294554355
17.463161417931182
17.463274018716273
17.463403701202854
17.463547149184517
17.46370136147185
17.463863792661545
17.464032414326233
17.46420570582225
17.46438259882352
17.464562396647132
17.464744677404305
17.46492918978229
17.465115747472137
17.465304120004408
17.465493920283823
17.465684488296937
17.465874772393715
17.466063215321842
17.466247652634326
17.466425248811078
17.46659248952546
17.466745263521798
17.4668790557928
17.46698925936053
17.467071587153903
17.46712252983239
17.4671397793023
17.564479161718154
17.56449137617283
17.564527590015715
17.564586566260157
17.56466640345591
17.56476474018823
17.564878985461263
17.565006532510616
17.565144935298648
17.565292025555287
17.565445977457934
17.565605319801467
17.56576890981255
17.565935882691576
17.566105582602454
17.566277482757144
17.566451101208713
17.566625912139116
17.566801255170883
17.56697624449426
17.567149680995897
17.5673199749069
17.56748508514698
17.56764249489855
17.56778923319116
17.56792196258972
17.568037141121927
17.56813125642749
17.568201114760704
17.568244147354804
17.568258684666645
17.665917601943217
17.665928202090335
17.665959685730883
17.66601113582211
17.66608112817551
17.66616786663326
17.666269339806394
17.666383471376083
17.66650825117958
17.666641828473658
17.666782571239068
17.666929087075786
17.667080213936963
17.66723499001627
17.667392605840725
17.6675523447436
17.66771351806679
17.667875395794386
17.668037136187248
17.668197717277717
17.668355873968473
17.66851004760504
17.668658352362648
17.668798573187082
17.668928199321446
17.669044505507397
17.669144682328135
17.669226010568092
17.669286065563238
17.669322925821724
17.66933535487872
17.767262524230052
17.767271838513754
17.767299541858936
17.767344937882445
17.767406935375867
17.767484139474007
17.767574960012208
17.76767771801169
17.767790742845797
17.767912444900727
17.768041366499858
17.768176204969762
17.768315812716832
17.76845918054255
17.768605405344832
17.76875364700591
17.768903080169736
17.769052841858095
17.769201978760947
17.769349397331993
17.769493820305176
17.769633755482506
17.76976747946364
17.76989304743793
17.7700083295245
17.770111081107988
17.770199045611815
17.770270084127723
17.770322321286066
17.77035428969222
17.770365053116404
17.86526839670608
17.865276668954305
17.865301300273053
17.865341749405005
17.865397161487678
17.865466430649683
17.86554827606223
17.86564131803367
17.86574415019653
17.86585539546856
17.86597374833899
17.866097996989154
17.866227028239088
17.86635981961004
17.866495418391136
17.86663291137276
17.866771390190372
17.866909913118487
17.8670474669715
17.867182932067777
17.867315053418082
17.86744242292657
17.86756347394953
17.867676496721362
17.867779673084986
17.867871135342597
17.867949046497326
17.86801169686319
17.8680576092743
17.868085640657092
17.86809506710039
17.95666612163375
17.95667353590546
17.956695631834204
17.95673197916023
17.956781893521203
17.956844480126342
17.95691868790796
17.957003364393035
17.95709730961264
17.957199319003063
17.95730821794209
17.9574228816617
17.957542242512126
17.95766528766912
17.957791046388785
17.9579185695849
17.95804690593417
17.958175075082625
17.958302041214104
17.95842668955211
17.958547808393096
17.958664080501713
17.958774084240762
17.95887631109906
17.958969196961892
17.959051170469642
17.95912071546468
17.95917644335499
17.959217169820082
17.959241987298874
17.959250324771805
18.04142367151922
18.04143037186143
18.04145035389987
18.041483268005308
18.04152855454722
18.041585474825695
18.041653150183368
18.04173060196089
18.041816792072034
18.041910655910183
18.04201113039104
18.042117171344614
18.04222776169422
18.04234191277635
18.042458657447167
18.042577037078054
18.042696085990116
18.04281481359011
18.042932187001206
18.04304711630775
18.043158444459394
18.043264944861747
18.04336532635189
18.043458250922377
18.04354236102688
18.043616318999952
18.04367885572495
18.04372882522274
18.04376526121616
18.043787429605715
18.043794871174576
18.119511310859494
18.119517412461494
18.1195356187608
18.119565639504884
18.11960700748958
18.11965910078724
18.119721171412564
18.119792374730658
18.119871800311035
18.119958497287968
18.120051497169445
18.12014982884144
18.120252526926958
18.120358635396286
18.120467204825285
18.120577284904204
18.120687915190363
18.120798114074468
18.120906868292895
18.121013124668426
18.121115785634103
18.12121371092445
18.12130572468289
18.12139063243108
18.12146724455835
18.121534408414732
18.12159104643034
18.12163619766463
18.121669060025287
18.121689028800663
18.121695727650952
18.19090154883805
18.1909071457697
18.190923853284783
18.19095142539466
18.190989464181975
18.191037436011534
18.191094692869562
18.19116049427268
18.19123403103157
18.1913144449632
18.19140084758146
18.19149233302405
18.191587986234453
18.19168688800422
18.191788115155592
18.19189073709748
18.19199381128933
18.192096377333236
18.192197451613715
18.192296023781193
18.19239105622668
18.192481488429063
18.192566245138234
18.192644252182525
18.192714456569384
18.19277585271135
18.192827512523515
18.192868617388708
18.192898490083323
18.192916623487065
18.192922703429485
18.255569119630426
18.255574290302985
18.255589730485124
18.255615227538833
18.255650436015113
18.255694889663367
18.255748017590005
18.25580916081072
18.255877590837677
18.255952525189176
18.256033142889404
18.256118595672056
18.25620801583419
18.25630052215494
18.25639522212098
18.25649121141852
18.256587572856624
18.256683374242314
18.256777666776525
18.256869484945028
18.25695784872628
18.257041769611494
18.25712025922825
18.25719234387779
18.257257081759057
18.257313584566244
18.25736104150952
18.25739874421968
18.25742611123981
18.257442709749064
18.257448272680396
18.313491367333462
18.313496178414432
18.31351054849939
18.313534290294612
18.313567098407447
18.313608558398695
18.313658159253997
18.313715306096068
18.31377933498943
18.31384952533662
18.313925112932232
18.314005299778167
18.314089261567815
18.31417615412279
18.31426511703085
18.314355275243695
18.314445740503597
18.314535611967912
18.314623977313776
18.314709915038584
18.314792498525478
18.314870803076545
18.314943914608975
18.315010942969533
18.315071036785966
18.31512340145052
18.315167318549953
18.315202165557643
18.31522743492727
18.315242750808878
18.315247882099083
18.364647528463976
18.364652037736214
18.364665509013562
18.36468777437237
18.364718559161602
18.36475748896313
18.36480409942663
18.364857846223366
18.36491811708678
18.364984241911387
18.365055503947843
18.365131148522106
18.365210390163075
18.3652924193282
18.36537640700622
18.36546150780667
18.365546863172245
18.365631603972037
18.36571485352953
18.365795731599462
18.365873359670744
18.365946868578014
18.36601540707077
18.366078154028042
18.366134331391716
18.366183219352212
18.36622417231936
18.36625663476318
18.366280156373037
18.366294405164275
18.36629917761969
18.40901970586574
18.409023964343994
18.409036688296307
18.409057724625292
18.40908682229844
18.409123637823765
18.409167743196527
18.40921863387171
18.40927573878851
18.409338428782277
18.409406026378186
18.40947781365893
18.409553039074417
18.409630924312633
18.409710669551217
18.409791457589986
18.409872458317825
18.409952832694337
18.410031737121976
18.410108328568725
18.410181770676015
18.410251241669968
18.410315942708987
18.410375109152525
18.4104280219705
18.410474020781514
18.410512517228714
18.410543007978344
18.410565087008667
18.410578456108112
18.410582932928836
18.446591972338453
18.4465960258756
18.446608138850355
18.446628169459103
18.44665588471934
18.446690964894138
18.44673301008988
18.44678154681174
18.446836036525422
18.4468958828407
18.446960440259488
18.447029021393107
18.4471009035027
18.447175335428636
18.447251543270426
18.44732873523688
18.4474061069799
18.447482846538783
18.44755813963519
18.44763117556392
18.447701153809582
18.447767292086304
18.447828834434773
18.447885061706756
18.447935301785527
18.447978940995515
18.44801543554685
18.448044322448098
18.448065229708956
18.44807788495744
18.448082121996283
18.47735111308479
18.477355003610793
18.477366630434236
18.47738586022677
18.477412473589364
18.477446168738968
18.477486567152695
18.47753321912106
18.477585611262523
18.477643172824873
18.477705283667056
18.477771280990268
18.477840465660535
18.477912109147894
18.47798545948238
18.478059746588404
18.47813418820488
18.478207995483338
18.478280378902916
18.478350554663955
18.478417751615236
18.47848121932439
18.478540235935697
18.478594118028486
18.478642229932568
18.478683993925934
18.478718900264447
18.47874651658434
18.478766496606138
18.478778587409437
18.478782634926013
18.50128626326116
18.501290029768874
18.501301286628923
18.501319906669934
18.501345680383253
18.501378319104308
18.501417459999345
18.50146267092789
18.501513457227873
18.501569267401745
18.501629500554166
18.501693512772487
18.50176062328244
18.50183012137394
18.50190127252925
18.501973324074292
18.50204551148355
18.502117064408623
18.502187212997253
18.502255194605574
18.502320260906885
18.50238168594464
18.50243877378685
18.502490867908808
18.50253735984628
18.502577698521197
18.50261139926673
18.50263805216705
18.50265732971349
18.502668993145612
18.502672897207873
18.518388826480287
18.518392505833397
18.51840350264857
18.51842169393524
18.518446876912243
18.518478771862142
18.51851702668973
18.518561221335492
18.51861087408181
18.51866544683552
18.51872435220296
18.51878695963444
18.518852601462385
18.518920579807244
18.518990172807303
18.519060640466353
18.51913123119718
18.519201188118082
18.519269755620865
18.51933618627421
18.519399748032225
18.519459732255044
18.519515461209714
18.519566297120207
18.519611650369214
18.519650988237267
18.519683843258424
18.51970982085719
18.51972860631471
18.51973997049777
18.519743774133772
18.528652813451615
18.528656441069117
18.528667283500393
18.528685220180833
18.528710052237592
18.528741505160276
18.528779233118392
18.52882282312184
18.52887180105619
18.528925636736382
18.528983750774536
18.529045520588287
18.529110286369097
18.529177357972372
18.529246021200215
18.529315543755345
18.529385181913785
18.529454186967023
18.52952181192419
18.52958731851619
18.52964998445278
18.529709111416118
18.52976403246692
18.529814120897665
18.529858798171983
18.529897542325898
18.529929895940487
18.529955473378312
18.529973967357996
18.529985154336526
18.52998889851205
18.53207453661718
18.532078147080995
18.53208893832091
18.532106790567646
18.532131506230375
18.532162812508325
18.532200365630274
18.532243754933596
18.532292508811626
18.532346099693388
18.53240395084411
18.532465442328707
18.532529916957312
18.53259668716935
18.53266504133264
18.53273424973086
18.532803571277054
18.532872260001884
18.53293957179801
18.533004771455612
18.5330671399338
18.53312598234391
18.533180635323756
18.533230475825576
18.53327492896944
18.53331347633422
18.533345663805424
18.533371108681727
18.533389506122532
18.533400634418012
18.53340435890398
