# vtk DataFile Version 2.0
Unstructured Grid Example
ASCII
DATASET UNSTRUCTURED_GRID

POINTS 961 float
0.400000004 0.01999999956 0
0.3866666556 0.01999999956 0
0.3733333348 0.01999999956 0
0.3600000144 0.01999999956 0
0.346666664 0.01999999956 0
0.3333333432 0.01999999956 0
0.3199999928 0.01999999956 0
0.3066666724 0.01999999956 0
0.293333322 0.01999999956 0
0.2800000012 0.01999999956 0
0.2666666804 0.01999999956 0
0.25333333 0.01999999956 0
0.2399999948 0.01999999956 0
0.226666674 0.01999999956 0
0.2133333384 0.01999999956 0
0.2000000028 0.01999999956 0
0.1866666676 0.01999999956 0
0.173333332 0.01999999956 0
0.1599999964 0.01999999956 0
0.1466666608 0.01999999956 0
0.1333333404 0.01999999956 0
0.1199999972 0.01999999956 0
0.1066666692 0.01999999956 0
0.0933333336 0.01999999956 0
0.0799999984 0.01999999956 0
0.06666667 0.01999999956 0
0.0533333348 0.01999999956 0
0.03999999912 0.01999999956 0
0.02666666732 0.01999999956 0
0.01333333364 0.01999999956 0
0.0 0.01999999956 0
0.400000004 0.00666666684 0
0.3866666556 0.00666666684 0
0.3733333348 0.00666666684 0
0.3600000144 0.00666666684 0
0.346666664 0.00666666684 0
0.3333333432 0.00666666684 0
0.3199999928 0.00666666684 0
0.3066666724 0.00666666684 0
0.293333322 0.00666666684 0
0.2800000012 0.00666666684 0
0.2666666804 0.00666666684 0
0.25333333 0.00666666684 0
0.2399999948 0.00666666684 0
0.226666674 0.00666666684 0
0.2133333384 0.00666666684 0
0.2000000028 0.00666666684 0
0.1866666676 0.00666666684 0
0.173333332 0.00666666684 0
0.1599999964 0.00666666684 0
0.1466666608 0.00666666684 0
0.1333333404 0.00666666684 0
0.1199999972 0.00666666684 0
0.1066666692 0.00666666684 0
0.0933333336 0.00666666684 0
0.0799999984 0.00666666684 0
0.06666667 0.00666666684 0
0.0533333348 0.00666666684 0
0.03999999912 0.00666666684 0
0.02666666732 0.00666666684 0
0.01333333364 0.00666666684 0
0.0 0.00666666684 0
0.400000004 -0.00666666684 0
0.3866666556 -0.00666666684 0
0.3733333348 -0.00666666684 0
0.3600000144 -0.00666666684 0
0.346666664 -0.00666666684 0
0.3333333432 -0.00666666684 0
0.3199999928 -0.00666666684 0
0.3066666724 -0.00666666684 0
0.293333322 -0.00666666684 0
0.2800000012 -0.00666666684 0
0.2666666804 -0.00666666684 0
0.25333333 -0.00666666684 0
0.2399999948 -0.00666666684 0
0.226666674 -0.00666666684 0
0.2133333384 -0.00666666684 0
0.2000000028 -0.00666666684 0
0.1866666676 -0.00666666684 0
0.173333332 -0.00666666684 0
0.1599999964 -0.00666666684 0
0.1466666608 -0.00666666684 0
0.1333333404 -0.00666666684 0
0.1199999972 -0.00666666684 0
0.1066666692 -0.00666666684 0
0.0933333336 -0.00666666684 0
0.0799999984 -0.00666666684 0
0.06666667 -0.00666666684 0
0.0533333348 -0.00666666684 0
0.03999999912 -0.00666666684 0
0.02666666732 -0.00666666684 0
0.01333333364 -0.00666666684 0
0.0 -0.00666666684 0
0.400000004 -0.01999999956 0
0.3866666556 -0.01999999956 0
0.3733333348 -0.01999999956 0
0.3600000144 -0.01999999956 0
0.346666664 -0.01999999956 0
0.3333333432 -0.01999999956 0
0.3199999928 -0.01999999956 0
0.3066666724 -0.01999999956 0
0.293333322 -0.01999999956 0
0.2800000012 -0.01999999956 0
0.2666666804 -0.01999999956 0
0.25333333 -0.01999999956 0
0.2399999948 -0.01999999956 0
0.226666674 -0.01999999956 0
0.2133333384 -0.01999999956 0
0.2000000028 -0.01999999956 0
0.1866666676 -0.01999999956 0
0.173333332 -0.01999999956 0
0.1599999964 -0.01999999956 0
0.1466666608 -0.01999999956 0
0.1333333404 -0.01999999956 0
0.1199999972 -0.01999999956 0
0.1066666692 -0.01999999956 0
0.0933333336 -0.01999999956 0
0.0799999984 -0.01999999956 0
0.06666667 -0.01999999956 0
0.0533333348 -0.01999999956 0
0.03999999912 -0.01999999956 0
0.02666666732 -0.01999999956 0
0.01333333364 -0.01999999956 0
0.0 -0.01999999956 0
0.400000004 -0.03333333508 0
0.3866666556 -0.03333333508 0
0.3733333348 -0.03333333508 0
0.3600000144 -0.03333333508 0
0.346666664 -0.03333333508 0
0.3333333432 -0.03333333508 0
0.3199999928 -0.03333333508 0
0.3066666724 -0.03333333508 0
0.293333322 -0.03333333508 0
0.2800000012 -0.03333333508 0
0.2666666804 -0.03333333508 0
0.25333333 -0.03333333508 0
0.2399999948 -0.03333333508 0
0.226666674 -0.03333333508 0
0.2133333384 -0.03333333508 0
0.2000000028 -0.03333333508 0
0.1866666676 -0.03333333508 0
0.173333332 -0.03333333508 0
0.1599999964 -0.03333333508 0
0.1466666608 -0.03333333508 0
0.1333333404 -0.03333333508 0
0.1199999972 -0.03333333508 0
0.1066666692 -0.03333333508 0
0.0933333336 -0.03333333508 0
0.0799999984 -0.03333333508 0
0.06666667 -0.03333333508 0
0.0533333348 -0.03333333508 0
0.03999999912 -0.03333333508 0
0.02666666732 -0.03333333508 0
0.01333333364 -0.03333333508 0
0.0 -0.03333333508 0
0.400000004 -0.0466666668 0
0.3866666556 -0.0466666668 0
0.3733333348 -0.0466666668 0
0.3600000144 -0.0466666668 0
0.346666664 -0.0466666668 0
0.3333333432 -0.0466666668 0
0.3199999928 -0.0466666668 0
0.3066666724 -0.0466666668 0
0.293333322 -0.0466666668 0
0.2800000012 -0.0466666668 0
0.2666666804 -0.0466666668 0
0.25333333 -0.0466666668 0
0.2399999948 -0.0466666668 0
0.226666674 -0.0466666668 0
0.2133333384 -0.0466666668 0
0.2000000028 -0.0466666668 0
0.1866666676 -0.0466666668 0
0.173333332 -0.0466666668 0
0.1599999964 -0.0466666668 0
0.1466666608 -0.0466666668 0
0.1333333404 -0.0466666668 0
0.1199999972 -0.0466666668 0
0.1066666692 -0.0466666668 0
0.0933333336 -0.0466666668 0
0.0799999984 -0.0466666668 0
0.06666667 -0.0466666668 0
0.0533333348 -0.0466666668 0
0.03999999912 -0.0466666668 0
0.02666666732 -0.0466666668 0
0.01333333364 -0.0466666668 0
0.0 -0.0466666668 0
0.400000004 -0.0599999988 0
0.3866666556 -0.0599999988 0
0.3733333348 -0.0599999988 0
0.3600000144 -0.0599999988 0
0.346666664 -0.0599999988 0
0.3333333432 -0.0599999988 0
0.3199999928 -0.0599999988 0
0.3066666724 -0.0599999988 0
0.293333322 -0.0599999988 0
0.2800000012 -0.0599999988 0
0.2666666804 -0.0599999988 0
0.25333333 -0.0599999988 0
0.2399999948 -0.0599999988 0
0.226666674 -0.0599999988 0
0.2133333384 -0.0599999988 0
0.2000000028 -0.0599999988 0
0.1866666676 -0.0599999988 0
0.173333332 -0.0599999988 0
0.1599999964 -0.0599999988 0
0.1466666608 -0.0599999988 0
0.1333333404 -0.0599999988 0
0.1199999972 -0.0599999988 0
0.1066666692 -0.0599999988 0
0.0933333336 -0.0599999988 0
0.0799999984 -0.0599999988 0
0.06666667 -0.0599999988 0
0.0533333348 -0.0599999988 0
0.03999999912 -0.0599999988 0
0.02666666732 -0.0599999988 0
0.01333333364 -0.0599999988 0
0.0 -0.0599999988 0
0.400000004 -0.0733333304 0
0.3866666556 -0.0733333304 0
0.3733333348 -0.0733333304 0
0.3600000144 -0.0733333304 0
0.346666664 -0.0733333304 0
0.3333333432 -0.0733333304 0
0.3199999928 -0.0733333304 0
0.3066666724 -0.0733333304 0
0.293333322 -0.0733333304 0
0.2800000012 -0.0733333304 0
0.2666666804 -0.0733333304 0
0.25333333 -0.0733333304 0
0.2399999948 -0.0733333304 0
0.226666674 -0.0733333304 0
0.2133333384 -0.0733333304 0
0.2000000028 -0.0733333304 0
0.1866666676 -0.0733333304 0
0.173333332 -0.0733333304 0
0.1599999964 -0.0733333304 0
0.1466666608 -0.0733333304 0
0.1333333404 -0.0733333304 0
0.1199999972 -0.0733333304 0
0.1066666692 -0.0733333304 0
0.0933333336 -0.0733333304 0
0.0799999984 -0.0733333304 0
0.06666667 -0.0733333304 0
0.0533333348 -0.0733333304 0
0.03999999912 -0.0733333304 0
0.02666666732 -0.0733333304 0
0.01333333364 -0.0733333304 0
0.0 -0.0733333304 0
0.400000004 -0.086666666 0
0.3866666556 -0.086666666 0
0.3733333348 -0.086666666 0
0.3600000144 -0.086666666 0
0.346666664 -0.086666666 0
0.3333333432 -0.086666666 0
0.3199999928 -0.086666666 0
0.3066666724 -0.086666666 0
0.293333322 -0.086666666 0
0.2800000012 -0.086666666 0
0.2666666804 -0.086666666 0
0.25333333 -0.086666666 0
0.2399999948 -0.086666666 0
0.226666674 -0.086666666 0
0.2133333384 -0.086666666 0
0.2000000028 -0.086666666 0
0.1866666676 -0.086666666 0
0.173333332 -0.086666666 0
0.1599999964 -0.086666666 0
0.1466666608 -0.086666666 0
0.1333333404 -0.086666666 0
0.1199999972 -0.086666666 0
0.1066666692 -0.086666666 0
0.0933333336 -0.086666666 0
0.0799999984 -0.086666666 0
0.06666667 -0.086666666 0
0.0533333348 -0.086666666 0
0.03999999912 -0.086666666 0
0.02666666732 -0.086666666 0
0.01333333364 -0.086666666 0
0.0 -0.086666666 0
0.400000004 -0.1000000016 0
0.3866666556 -0.1000000016 0
0.3733333348 -0.1000000016 0
0.3600000144 -0.1000000016 0
0.346666664 -0.1000000016 0
0.3333333432 -0.1000000016 0
0.3199999928 -0.1000000016 0
0.3066666724 -0.1000000016 0
0.293333322 -0.1000000016 0
0.2800000012 -0.1000000016 0
0.2666666804 -0.1000000016 0
0.25333333 -0.1000000016 0
0.2399999948 -0.1000000016 0
0.226666674 -0.1000000016 0
0.2133333384 -0.1000000016 0
0.2000000028 -0.1000000016 0
0.1866666676 -0.1000000016 0
0.173333332 -0.1000000016 0
0.1599999964 -0.1000000016 0
0.1466666608 -0.1000000016 0
0.1333333404 -0.1000000016 0
0.1199999972 -0.1000000016 0
0.1066666692 -0.1000000016 0
0.0933333336 -0.1000000016 0
0.0799999984 -0.1000000016 0
0.06666667 -0.1000000016 0
0.0533333348 -0.1000000016 0
0.03999999912 -0.1000000016 0
0.02666666732 -0.1000000016 0
0.01333333364 -0.1000000016 0
0.0 -0.1000000016 0
0.400000004 -0.1133333372 0
0.3866666556 -0.1133333372 0
0.3733333348 -0.1133333372 0
0.3600000144 -0.1133333372 0
0.346666664 -0.1133333372 0
0.3333333432 -0.1133333372 0
0.3199999928 -0.1133333372 0
0.3066666724 -0.1133333372 0
0.293333322 -0.1133333372 0
0.2800000012 -0.1133333372 0
0.2666666804 -0.1133333372 0
0.25333333 -0.1133333372 0
0.2399999948 -0.1133333372 0
0.226666674 -0.1133333372 0
0.2133333384 -0.1133333372 0
0.2000000028 -0.1133333372 0
0.1866666676 -0.1133333372 0
0.173333332 -0.1133333372 0
0.1599999964 -0.1133333372 0
0.1466666608 -0.1133333372 0
0.1333333404 -0.1133333372 0
0.1199999972 -0.1133333372 0
0.1066666692 -0.1133333372 0
0.0933333336 -0.1133333372 0
0.0799999984 -0.1133333372 0
0.06666667 -0.1133333372 0
0.0533333348 -0.1133333372 0
0.03999999912 -0.1133333372 0
0.02666666732 -0.1133333372 0
0.01333333364 -0.1133333372 0
0.0 -0.1133333372 0
0.400000004 -0.1266666652 0
0.3866666556 -0.1266666652 0
0.3733333348 -0.1266666652 0
[...]
POINT_DATA 961
SCALARS Temp float 1
LOOKUP_TABLE default
0.741307756691476
0.7709158757914971
0.7921638504357592
0.8076133463901466
0.8189334525736582
0.8272687018260001
0.8334339310339163
0.8380156289857859
0.8414406661323269
0.8440218153550189
0.8459909705614315
0.847522180587224
0.8487484548589033
0.8497748427140216
0.8506881924355331
0.851564892968903
0.8524779631892536
0.8535035687948579
0.8547278686730525
0.856254847263794
0.8582158531916733
0.8607821573081688
0.8641809603817275
0.8687181372473607
0.8748087711808884
0.883020487533954
0.8941351913963893
0.9092393884154442
0.9298617615374307
0.9582208689914219
0.9978359101745308
0.7824354881067523
0.811468332449566
0.8324880926505496
0.8478530253381165
0.8591342662115714
0.8674535658586134
0.8736139964921219
0.8781964475975235
0.8816248637096993
0.8842104951835796
0.8861844541366061
0.8877204215351208
0.8889512765240083
0.8899820654524926
0.8908997043590309
0.8917806915855864
0.8926981705894158
0.8937284309911587
0.8949577362188298
0.8964901283855415
0.8984569233713596
0.9010291855175789
0.9044336092935263
0.9089750094943818
0.9150664171012955
0.9232715480148478
0.9343647953395516
0.9494171371153712
0.9699249273236148
0.9979949013712608
1.0366784874370911
2.7079966353278477
2.712310000636764
2.724331480472009
2.7354190718701212
2.744587820737429
2.751882968108732
2.757595116534094
2.762037986423773
2.765489849968256
2.7681816621855555
2.7703002732767046
2.771995913728217
2.7733903066388788
2.774584255190935
2.775664395123583
2.776709232498268
2.7777947590281657
2.7789999592373524
2.7804125070082804
2.7821350054938465
2.784292118802314
2.787038831579093
2.790569978903635
2.795130671935807
2.8010259913869078
2.808624978575783
2.818344632319487
2.8305713419925658
2.8453646185459873
2.8614001138182
2.867157024139477
4.609558849113902
4.611912791407857
4.617690328038559
4.624909700662879
4.631754977399645
4.637689954496018
4.642627489640208
4.646650616120063
4.649896670637788
4.652510393394076
4.654626046987985
4.656362073474406
4.657821320980814
4.659093666806277
4.660259571742146
4.661393977850942
4.662570344165014
4.663864760856534
4.665360174909933
4.667150738518529
4.669346187573573
4.6720759451992215
4.675492051767714
4.679769092344619
4.685096760870987
4.69165565755431
4.699554560523682
4.708675406022944
4.718300301881243
4.726005216861481
4.729144420506131
6.505503064206332
6.506755884772342
6.510141777907418
6.514726305625149
6.519608692365212
6.524196542847459
6.528246020018999
6.5316995304999415
6.534590229979532
6.536990278683184
6.538984739708047
6.540659162954542
6.542094516010458
6.543366018259378
6.544543994472695
6.545695786699316
6.546888211888419
6.548190248797628
6.549675749770095
6.551425937981702
6.55353130258839
6.556092203449366
6.559216817833374
6.563014039171076
6.567576618598368
6.572946019221103
6.579043231730816
6.585540979684366
6.59164730732747
6.596159043446833
6.597828755681403
8.3980560772621
8.398819220119439
8.40093086144189
8.403954272547338
8.407383990815273
8.410816796544129
8.414006453586452
8.416841838927594
8.419297246653725
8.421394880754386
8.42318109637105
8.424712595590993
8.426049101393062
8.427250023537699
8.42837347493074
8.429476655780046
8.430616988144351
8.431853554940412
8.43324850028169
8.434868009083212
8.436782335690921
8.439064074839779
8.441783302029974
8.444997515147737
8.448732961758214
8.452952666102933
8.457506266922277
8.462063495284754
8.466085009723097
8.468895392251456
8.469911319794328
10.28832486672747
10.28881099760464
10.290181557856613
10.292207727934672
10.294603464227004
10.297107500552316
10.299530347265328
10.301760916620013
10.303751211233767
10.305495719641664
10.307014671403895
10.3083424418725
10.309520354788123
10.310592677464241
10.31160472407923
10.312602290081335
10.313631852562477
10.314741078674613
10.315979260129899
10.317397256035445
10.319046410484738
10.320975719452665
10.323226168960884
10.32582091014716
10.32874958299128
10.331945757083595
10.33525935572711
10.338436058494406
10.341126148120924
10.342947148765711
10.343593265749154
12.176797122059703
12.177110341479104
12.178003194746612
12.179350795900788
12.180988189706003
12.182752360272715
12.184511773650142
12.186177908609851
12.187702822097293
12.189070115760938
12.190285052885876
12.191366429313497
12.192340831959285
12.193239019902812
12.194093882644962
12.194939473910356
12.195810692332772
12.196743221573564
12.197773388216497
12.198937567613575
12.200270694768601
12.201803339069455
12.2035566476487
12.205534525557566
12.207712637136181
12.210025058651384
12.212352163350962
12.214517249251445
12.216301919900095
12.217485442840816
12.21790080806662
14.063714811742956
14.063908255807537
14.064463736024912
14.06531374744394
14.066366047000727
14.067524761809512
14.068707284843768
14.06985314376546
14.070925411825163
14.071907382545024
14.072797539383943
14.073604685026378
14.074344103613022
14.075034907854624
14.07569837794503
14.07635702706807
14.07703412189905
14.077753384869402
14.078538627399098
14.07941304435612
14.080397863545857
14.081510012970442
14.082758436450902
14.084138873169692
14.085627259220951
14.087172908928657
14.08869403776579
14.090079560972425
14.091200921111165
14.09193458843618
14.092190226086737
15.949195596306577
15.949296928119171
15.949589539219215
15.950042173029304
15.95061119008879
15.951249767208347
15.951915811828496
15.952576758715372
15.953211094622937
15.953807473533265
15.954362680111606
15.9548793632176
15.955364084870446
15.955825870303801
15.956275225293826
15.956723517736165
15.957182595751155
15.957664498755081
15.95818112699379
15.958743725148663
15.959362023215654
15.960042878355965
15.960788271180897
15.961592657706317
15.962439896551366
15.963300476739553
15.964130318833915
15.964872764426937
15.965464973648592
15.965848461146393
15.965981369995239
17.83329564312329
17.833317367794848
17.833381232805294
17.8334835509131
17.83361889832609
17.833780964591643
17.833963392022305
17.83416042572622
17.834367310958243
17.834580438617923
17.83479731618015
17.835016427671896
17.835237048212147
17.83545905509183
17.835682748818343
17.835908690057813
17.8361375514691
17.8363699721286
17.836606404886126
17.836846945543684
17.837091134854926
17.837337732416977
17.83758446562822
17.837827789087502
17.838062698380934
17.838282686976445
17.838479944031295
17.83864587825972
17.838771988230086
17.83885097850009
17.838877894545117
17.938416310950107
17.93843432821764
17.938487491240398
17.93857327351939
17.938687890738773
17.938826820395388
17.93898534378382
17.93915900045781
17.9393439068278
17.93953691748353
17.93973566452651
17.939938503229307
17.94014440548957
17.940352832576544
17.940563599597528
17.94077674072745
17.940992379242154
17.94121059609376
17.941431293367142
17.941654047864024
17.94187795239757
17.9421014498417
17.942322167417128
17.94253678363762
17.942740958715785
17.94292938516513
17.94309600778656
17.943234444386547
17.943338595469058
17.94340336455349
17.943425352579556
18.04342691289727
18.043442162669653
18.04348728904321
18.04356050810344
18.043659108331276
18.043779777877013
18.04391896089383
18.04407317420757
18.044239251375206
18.044414488739584
18.04459670955291
18.044784255315363
18.04497592935704
18.045170914560124
18.04536867433744
18.045568845990246
18.04577113278522
18.04597519228588
18.046180521283073
18.046386336764527
18.046591454345
18.046794171625812
18.046992164170987
18.047182420559263
18.047361235244374
18.04752429400512
18.047666874297196
18.04778416803878
18.047871707745337
18.047925840018397
18.047944163463637
18.148332692285617
18.148345827981505
18.148384785637457
18.148448270324664
18.148534289563617
18.14864036489372
18.148763770398112
18.148901754078096
18.14905172094837
18.14921135459255
18.14937868492148
18.14955210161177
18.14973032797143
18.149912369919477
18.150097445764477
18.15028490470867
18.150474141040426
18.150664503636744
18.15085520343459
18.151045220704965
18.151233215395017
18.151417448358863
18.151595719665988
18.151765344455637
18.151923176120253
18.152065697788654
18.152189190412695
18.1522899753577
18.152364713590124
18.152410722678827
18.1524262604824
18.25313756933337
18.253149059200602
18.253183195602553
18.253239013485963
18.253315012331583
18.253409296104955
18.253519735704767
18.25364412473035
18.253780315686413
18.253926316994914
18.254080355237473
18.254240897645168
18.254406643485364
18.254576494110967
18.254749504590343
18.25492482332452
18.255101626346764
18.255279046865546
18.255456103786653
18.255631632151005
18.255804219328446
18.255972154120755
18.25613339305696
18.256285559407676
18.256425978747984
18.2565517637767
18.256659949801435
18.256747675577984
18.25681239505262
18.25685209338534
18.25686547518555
18.35784449030028
18.357854679499088
18.357884993461145
18.357934694234515
18.358002623869492
18.358087298910434
18.358187022877733
18.358299996784087
18.3584244203283
18.358558567650665
18.358700840964598
18.35884979533448
18.35900413976447
18.359162721181754
18.35932449225233
18.359488468017418
18.359653677384813
18.35981911028327
18.359983664492784
18.360146095367227
18.36030497215547
18.36045864702418
18.360605239328525
18.360742646933943
18.360868584736018
18.36098065830223
18.36107647091343
18.361153758220887
18.361210539594108
18.361245267848233
18.361256956879703
18.45908887708963
18.45909801950255
18.459125248664257
18.45916998594788
18.459231316021178
18.45930805182961
18.459398813723688
18.459502108597125
18.459616405310474
18.459740193224835
18.45987202695964
18.46001055024162
18.460154502077376
18.46030270983819
18.46045406888126
18.460607512520937
18.46076197760761
18.460916366399886
18.461069508560787
18.46122012631315
18.461366805988913
18.461507980980745
18.461641927261944
18.461766780595607
18.461880573444965
18.46198129680126
18.46206698399053
18.46213581125163
18.462186207104
18.462216957810977
18.462227295646
18.553482355007745
18.553490638670088
18.55351533110314
18.553555967478232
18.553611807159086
18.553681879146385
18.55376503860038
18.553860024072115
18.553965514078406
18.55408017217231
18.554202683740737
18.55433177761673
18.55446623469446
18.554604886905427
18.554746605357813
18.554890280536775
18.555034799067595
18.55517901744331
18.55532173614136
18.555461676765134
18.555597464862107
18.555727622440266
18.555850570333106
18.555964647642
18.556068145121195
18.556159356213893
18.556236642515433
18.55629850933462
18.55634368564146
18.55637119950276
18.556380440236495
18.64099337806255
18.641000949603523
18.641023534224068
18.641060749587695
18.64111198258114
18.641176421604733
18.64125309757699
18.641340925773807
18.64143874865941
18.64154537065835
18.641659588287425
18.64178020920427
18.641906061811838
18.64203599802166
18.642168887492243
18.64230360554773
18.642439018606847
18.642573967195702
18.642707249487497
18.642837607537494
18.642963718291924
18.643084192565503
18.643197581430748
18.643302395919534
18.643397136357137
18.643480334207503
18.643550603338827
18.643606697252093
18.643647568246262
18.643672422198474
18.643680763089108
18.721593735062594
18.721600711257903
18.72162153075383
18.721655871817497
18.7217032155982
18.721762869435235
18.721833997088957
18.721915649700048
18.72200679860693
18.722106362346615
18.722213231418785
18.722326284904447
18.722444400296784
18.722566458680202
18.722691343307083
18.722817933261418
18.722945095470727
18.723071674829622
18.723196484904335
18.723318300933983
18.7234358566993
18.72354784779145
18.72365294025049
18.723749789538772
18.723837065973548
18.72391348904317
18.723977867809552
18.72402914469405
18.724066439846332
18.724089091538037
18.72409668859901
18.79525839100077
18.79526486679397
18.795284200590803
18.795316115718958
18.795360163801064
18.795415741854754
18.795482114971424
18.795558439543612
18.795643788784155
18.795737173914457
18.79583756470927
18.79594390400266
18.796055117372063
18.796170119841594
18.796287817524078
18.79640710551018
18.79652686479742
18.796645957758265
18.79676322419168
18.796877479273945
18.79698751455783
18.797092104034547
18.79719001392587
18.79728002050348
18.797360932057813
18.797431617189385
18.797491036955456
18.797538278780515
18.797572590213807
18.79759340919209
18.79760038807358
18.861965319453876
18.861971373621863
18.86198945416602
18.86201931827049
18.862060570772577
18.862112676930344
18.862174979764486
18.862246717765657
18.862327045089778
18.86241504842496
18.862509764271532
18.862610191697314
18.862715301715113
18.862824044931465
18.862935355338337
18.863048151275038
18.863161335975793
18.863273796989628
18.863384406156854
18.8634920211246
18.863595489212823
18.86369365524863
18.863785371850994
18.863869515979186
18.863945007963157
18.86401083504591
18.864066077280626
18.86410993417053
18.86414175076636
18.86416104072762
18.864167504448936
18.921695721113398
18.92170142033096
18.92171844481179
18.921746577394824
18.921785463424662
18.92183462047162
18.92189345187781
18.921961260509818
18.92203726506772
18.922120613753385
18.922210399051888
18.922305669078725
18.922405436603896
18.92250868727097
18.92261438488268
18.922721474573148
18.92282888598076
18.922935535546905
18.923040329330092
18.92314216704975
18.92323994790958
18.923332579517346
18.923418988277646
18.923498134713654
18.92356903007557
18.92363075617844
18.923682486581733
18.92372350786521
18.923753240167883
18.92377125508959
18.923777289625207
18.974433081986593
18.974438483795662
18.974454622734783
18.97448130119414
18.97451819551607
18.974564863560033
18.974620755536925
18.97468522492276
18.974757541930853
18.974836904822393
18.974922452791645
18.97501327620371
18.975108425275057
18.975206918621584
18.975307749570952
18.975409890906153
18.97551229991725
18.975613922767423
18.975713699327834
18.975810568987335
18.97590347778735
18.97599138797286
18.97607328828271
18.97614820816689
18.976215232439134
18.976273518249418
18.9763223127121
18.976360970221243
18.976388968940856
18.97640592498983
18.97641160337983
19.02016396139654
19.020169116403743
19.020184520030007
19.020209989589436
19.020245225173888
19.020289815689644
19.02034324775128
19.020404914557854
19.020474127298144
19.020550124731905
19.02063208464816
19.02071913324277
19.02081035349169
19.020904793875133
19.021001475385887
19.021099397376126
19.021197543934314
19.02129488971396
19.021390406186086
19.021483068661652
19.021571864286287
19.021655801929732
19.021733922271753
19.02180531106947
19.0218691122574
19.021924542723134
19.021970907273534
19.022007613029427
19.022034182964436
19.02205026740568
19.02205565282213
19.05887684657435
19.058881800115994
19.05889660320883
19.058921084506352
19.058954962204687
19.05899784899772
19.059049259585986
19.059108618096786
19.05917526799159
19.059248480389513
19.05932746446271
19.059411376158376
19.05949932631137
19.059590389450648
19.059683611271403
19.059778015244802
19.0598726099146
19.05996639574413
19.060058372346326
19.060147546323655
19.060232939812142
19.060313600527415
19.06038861161238
19.06045710411692
19.060518268887947
19.06057136968078
19.06061575614575
19.060650876081535
19.06067628683007
19.060691664842977
19.06069681292959
19.09056270137307
19.09056749479587
19.090581820421004
19.090605515392575
19.090638311500815
19.090679839378797
19.09072963503303
19.09078714623456
19.09085174135536
19.09092271678947
19.09099930657093
19.09108069060654
19.09116600257784
19.091254338775066
19.091344765871813
19.09143632805231
19.091528054933278
19.091618969105532
19.091708094023925
19.09179446238634
19.091877125017426
19.091955160965863
19.0920276871214
19.092093870065952
19.09215293704371
19.092204187834835
19.09224700629346
19.09228087105141
19.092305365374177
19.09232018534765
19.09232514603286
19.115214390338004
19.115219062013516
19.11523302448911
19.115256121065713
19.115288093413536
19.11532858524981
19.115377148195435
19.115433247457414
19.115496269919923
19.115565530936884
19.11564028339849
19.11571972561197
19.115803009041993
19.115889247144395
19.115977523331903
19.116066898442202
19.11615641907222
19.116245125579205
19.116332060402993
19.116416276789106
19.116496847874764
19.116572876783017
19.11664350604232
19.116707928960484
19.116765399921764
19.116815245371278
19.116856874324807
19.116889787983034
19.11691358851218
19.116927986271847
19.116932805212787
19.132826415645297
19.132831001796124
19.132844709115265
19.132867385078306
19.132898778066497
19.132938540708555
19.132986235298713
19.133041339018813
19.133103251540465
19.133171301405632
19.13324475472625
19.13332282282824
19.133404669878345
19.133489421706717
19.13357617388718
19.133663999417422
19.133751957310476
19.133839100883012
19.13392448634535
19.134007181732674
19.13408627610444
19.134160889615487
19.134230182786272
19.134293367542842
19.13434971705586
19.13439857612687
19.13443937101371
19.134471618324454
19.134494933090426
19.134509035365614
19.13451375512973
19.143395117593123
19.143399652988396
19.14341320886219
19.143435635110183
19.14346668400868
19.143506013367897
19.143553191703298
19.14360770319833
19.143668955030293
19.14373628351741
19.14380896260894
19.143886211392786
19.1439672016548
19.14405106669086
19.14413690944723
19.14422381031635
19.14431083586795
19.144397047294067
19.14448150914398
19.14456329836588
19.144641513562473
19.144715285040633
19.144783783988878
19.14484623332027
19.14490191724491
19.144950191312144
19.144990491844283
19.14502234442043
19.14504537154793
19.14505929890598
19.145063959969214
19.146918249305656
19.14692276787417
19.14693627353673
19.146958616982047
19.146989551763458
19.147028737391647
19.147075744426147
19.147130059354634
19.147191091829143
19.14725818073775
19.147330602626536
19.1474075791625
19.14748828467068
19.147571854941923
19.147657395392077
19.147743988894167
19.147830704553908
19.147916606204312
19.148000761186353
19.148082249425144
19.148160172702458
19.14823366469777
19.148301900134697
19.148364105558297
19.148419568820525
19.148467649009916
19.148507785757896
19.14853950758951
19.148562439464648
19.148576308906513
19.148580950534917
