# vtk DataFile Version 2.0
Unstructured Grid Example
ASCII
DATASET UNSTRUCTURED_GRID

POINTS 961 float
0.400000004 0.01999999956 0
0.3866666556 0.01999999956 0
0.3733333348 0.01999999956 0
0.3600000144 0.01999999956 0
0.346666664 0.01999999956 0
0.3333333432 0.01999999956 0
0.3199999928 0.01999999956 0
0.3066666724 0.01999999956 0
0.293333322 0.01999999956 0
0.2800000012 0.01999999956 0
0.2666666804 0.01999999956 0
0.25333333 0.01999999956 0
0.2399999948 0.01999999956 0
0.226666674 0.01999999956 0
0.2133333384 0.01999999956 0
0.2000000028 0.01999999956 0
0.1866666676 0.01999999956 0
0.173333332 0.01999999956 0
0.1599999964 0.01999999956 0
0.1466666608 0.01999999956 0
0.1333333404 0.01999999956 0
0.1199999972 0.01999999956 0
0.1066666692 0.01999999956 0
0.0933333336 0.01999999956 0
0.0799999984 0.01999999956 0
0.06666667 0.01999999956 0
0.0533333348 0.01999999956 0
0.03999999912 0.01999999956 0
0.02666666732 0.01999999956 0
0.01333333364 0.01999999956 0
0.0 0.01999999956 0
0.400000004 0.00666666684 0
0.3866666556 0.00666666684 0
0.3733333348 0.00666666684 0
0.3600000144 0.00666666684 0
0.346666664 0.00666666684 0
0.3333333432 0.00666666684 0
0.3199999928 0.00666666684 0
0.3066666724 0.00666666684 0
0.293333322 0.00666666684 0
0.2800000012 0.00666666684 0
0.2666666804 0.00666666684 0
0.25333333 0.00666666684 0
0.2399999948 0.00666666684 0
0.226666674 0.00666666684 0
0.2133333384 0.00666666684 0
0.2000000028 0.00666666684 0
0.1866666676 0.00666666684 0
0.173333332 0.00666666684 0
0.1599999964 0.00666666684 0
0.1466666608 0.00666666684 0
0.1333333404 0.00666666684 0
0.1199999972 0.00666666684 0
0.1066666692 0.00666666684 0
0.0933333336 0.00666666684 0
0.0799999984 0.00666666684 0
0.06666667 0.00666666684 0
0.0533333348 0.00666666684 0
0.03999999912 0.00666666684 0
0.02666666732 0.00666666684 0
0.01333333364 0.00666666684 0
0.0 0.00666666684 0
0.400000004 -0.00666666684 0
0.3866666556 -0.00666666684 0
0.3733333348 -0.00666666684 0
0.3600000144 -0.00666666684 0
0.346666664 -0.00666666684 0
0.3333333432 -0.00666666684 0
0.3199999928 -0.00666666684 0
0.3066666724 -0.00666666684 0
0.293333322 -0.00666666684 0
0.2800000012 -0.00666666684 0
0.2666666804 -0.00666666684 0
0.25333333 -0.00666666684 0
0.2399999948 -0.00666666684 0
0.226666674 -0.00666666684 0
0.2133333384 -0.00666666684 0
0.2000000028 -0.00666666684 0
0.1866666676 -0.00666666684 0
0.173333332 -0.00666666684 0
0.1599999964 -0.00666666684 0
0.1466666608 -0.00666666684 0
0.1333333404 -0.00666666684 0
0.1199999972 -0.00666666684 0
0.1066666692 -0.00666666684 0
0.0933333336 -0.00666666684 0
0.0799999984 -0.00666666684 0
0.06666667 -0.00666666684 0
0.0533333348 -0.00666666684 0
0.03999999912 -0.00666666684 0
0.02666666732 -0.00666666684 0
0.01333333364 -0.00666666684 0
0.0 -0.00666666684 0
0.400000004 -0.01999999956 0
0.3866666556 -0.01999999956 0
0.3733333348 -0.01999999956 0
0.3600000144 -0.01999999956 0
0.346666664 -0.01999999956 0
0.3333333432 -0.01999999956 0
0.3199999928 -0.01999999956 0
0.3066666724 -0.01999999956 0
0.293333322 -0.01999999956 0
0.2800000012 -0.01999999956 0
0.2666666804 -0.01999999956 0
0.25333333 -0.01999999956 0
0.2399999948 -0.01999999956 0
0.226666674 -0.01999999956 0
0.2133333384 -0.01999999956 0
0.2000000028 -0.01999999956 0
0.1866666676 -0.01999999956 0
0.173333332 -0.01999999956 0
0.1599999964 -0.01999999956 0
0.1466666608 -0.01999999956 0
0.1333333404 -0.01999999956 0
0.1199999972 -0.01999999956 0
0.1066666692 -0.01999999956 0
0.0933333336 -0.01999999956 0
0.0799999984 -0.01999999956 0
0.06666667 -0.01999999956 0
0.0533333348 -0.01999999956 0
0.03999999912 -0.01999999956 0
0.02666666732 -0.01999999956 0
0.01333333364 -0.01999999956 0
0.0 -0.01999999956 0
0.400000004 -0.03333333508 0
0.3866666556 -0.03333333508 0
0.3733333348 -0.03333333508 0
0.3600000144 -0.03333333508 0
0.346666664 -0.03333333508 0
0.3333333432 -0.03333333508 0
0.3199999928 -0.03333333508 0
0.3066666724 -0.03333333508 0
0.293333322 -0.03333333508 0
0.2800000012 -0.03333333508 0
0.2666666804 -0.03333333508 0
0.25333333 -0.03333333508 0
0.2399999948 -0.03333333508 0
0.226666674 -0.03333333508 0
0.2133333384 -0.03333333508 0
0.2000000028 -0.03333333508 0
0.1866666676 -0.03333333508 0
0.173333332 -0.03333333508 0
0.1599999964 -0.03333333508 0
0.1466666608 -0.03333333508 0
0.1333333404 -0.03333333508 0
0.1199999972 -0.03333333508 0
0.1066666692 -0.03333333508 0
0.0933333336 -0.03333333508 0
0.0799999984 -0.03333333508 0
0.06666667 -0.03333333508 0
0.0533333348 -0.03333333508 0
0.03999999912 -0.03333333508 0
0.02666666732 -0.03333333508 0
0.01333333364 -0.03333333508 0
0.0 -0.03333333508 0
0.400000004 -0.0466666668 0
0.3866666556 -0.0466666668 0
0.3733333348 -0.0466666668 0
0.3600000144 -0.0466666668 0
0.346666664 -0.0466666668 0
0.3333333432 -0.0466666668 0
0.3199999928 -0.0466666668 0
0.3066666724 -0.0466666668 0
0.293333322 -0.0466666668 0
0.2800000012 -0.0466666668 0
0.2666666804 -0.0466666668 0
0.25333333 -0.0466666668 0
0.2399999948 -0.0466666668 0
0.226666674 -0.0466666668 0
0.2133333384 -0.0466666668 0
0.2000000028 -0.0466666668 0
0.1866666676 -0.0466666668 0
0.173333332 -0.0466666668 0
0.1599999964 -0.0466666668 0
0.1466666608 -0.0466666668 0
0.1333333404 -0.0466666668 0
0.1199999972 -0.0466666668 0
0.1066666692 -0.0466666668 0
0.0933333336 -0.0466666668 0
0.0799999984 -0.0466666668 0
0.06666667 -0.0466666668 0
0.0533333348 -0.0466666668 0
0.03999999912 -0.0466666668 0
0.02666666732 -0.0466666668 0
0.01333333364 -0.0466666668 0
0.0 -0.0466666668 0
0.400000004 -0.0599999988 0
0.3866666556 -0.0599999988 0
0.3733333348 -0.0599999988 0
0.3600000144 -0.0599999988 0
0.346666664 -0.0599999988 0
0.3333333432 -0.0599999988 0
0.3199999928 -0.0599999988 0
0.3066666724 -0.0599999988 0
0.293333322 -0.0599999988 0
0.2800000012 -0.0599999988 0
0.2666666804 -0.0599999988 0
0.25333333 -0.0599999988 0
0.2399999948 -0.0599999988 0
0.226666674 -0.0599999988 0
0.2133333384 -0.0599999988 0
0.2000000028 -0.0599999988 0
0.1866666676 -0.0599999988 0
0.173333332 -0.0599999988 0
0.1599999964 -0.0599999988 0
0.1466666608 -0.0599999988 0
0.1333333404 -0.0599999988 0
0.1199999972 -0.0599999988 0
0.1066666692 -0.0599999988 0
0.0933333336 -0.0599999988 0
0.0799999984 -0.0599999988 0
0.06666667 -0.0599999988 0
0.0533333348 -0.0599999988 0
0.03999999912 -0.0599999988 0
0.02666666732 -0.0599999988 0
0.01333333364 -0.0599999988 0
0.0 -0.0599999988 0
0.400000004 -0.0733333304 0
0.3866666556 -0.0733333304 0
0.3733333348 -0.0733333304 0
0.3600000144 -0.0733333304 0
0.346666664 -0.0733333304 0
0.3333333432 -0.0733333304 0
0.3199999928 -0.0733333304 0
0.3066666724 -0.0733333304 0
0.293333322 -0.0733333304 0
0.2800000012 -0.0733333304 0
0.2666666804 -0.0733333304 0
0.25333333 -0.0733333304 0
0.2399999948 -0.0733333304 0
0.226666674 -0.0733333304 0
0.2133333384 -0.0733333304 0
0.2000000028 -0.0733333304 0
0.1866666676 -0.0733333304 0
0.173333332 -0.0733333304 0
0.1599999964 -0.0733333304 0
0.1466666608 -0.0733333304 0
0.1333333404 -0.0733333304 0
0.1199999972 -0.0733333304 0
0.1066666692 -0.0733333304 0
0.0933333336 -0.0733333304 0
0.0799999984 -0.0733333304 0
0.06666667 -0.0733333304 0
0.0533333348 -0.0733333304 0
0.03999999912 -0.0733333304 0
0.02666666732 -0.0733333304 0
0.01333333364 -0.0733333304 0
0.0 -0.0733333304 0
0.400000004 -0.086666666 0
0.3866666556 -0.086666666 0
0.3733333348 -0.086666666 0
0.3600000144 -0.086666666 0
0.346666664 -0.086666666 0
0.3333333432 -0.086666666 0
0.3199999928 -0.086666666 0
0.3066666724 -0.086666666 0
0.293333322 -0.086666666 0
0.2800000012 -0.086666666 0
0.2666666804 -0.086666666 0
0.25333333 -0.086666666 0
0.2399999948 -0.086666666 0
0.226666674 -0.086666666 0
0.2133333384 -0.086666666 0
0.2000000028 -0.086666666 0
0.1866666676 -0.086666666 0
0.173333332 -0.086666666 0
0.1599999964 -0.086666666 0
0.1466666608 -0.086666666 0
0.1333333404 -0.086666666 0
0.1199999972 -0.086666666 0
0.1066666692 -0.086666666 0
0.0933333336 -0.086666666 0
0.0799999984 -0.086666666 0
0.06666667 -0.086666666 0
0.0533333348 -0.086666666 0
0.03999999912 -0.086666666 0
0.02666666732 -0.086666666 0
0.01333333364 -0.086666666 0
0.0 -0.086666666 0
0.400000004 -0.1000000016 0
0.3866666556 -0.1000000016 0
0.3733333348 -0.1000000016 0
0.3600000144 -0.1000000016 0
0.346666664 -0.1000000016 0
0.3333333432 -0.1000000016 0
0.3199999928 -0.1000000016 0
0.3066666724 -0.1000000016 0
0.293333322 -0.1000000016 0
0.2800000012 -0.1000000016 0
0.2666666804 -0.1000000016 0
0.25333333 -0.1000000016 0
0.2399999948 -0.1000000016 0
0.226666674 -0.1000000016 0
0.2133333384 -0.1000000016 0
0.2000000028 -0.1000000016 0
0.1866666676 -0.1000000016 0
0.173333332 -0.1000000016 0
0.1599999964 -0.1000000016 0
0.1466666608 -0.1000000016 0
0.1333333404 -0.1000000016 0
0.1199999972 -0.1000000016 0
0.1066666692 -0.1000000016 0
0.0933333336 -0.1000000016 0
0.0799999984 -0.1000000016 0
0.06666667 -0.1000000016 0
0.0533333348 -0.1000000016 0
0.03999999912 -0.1000000016 0
0.02666666732 -0.1000000016 0
0.01333333364 -0.1000000016 0
0.0 -0.1000000016 0
0.400000004 -0.1133333372 0
0.3866666556 -0.1133333372 0
0.3733333348 -0.1133333372 0
0.3600000144 -0.1133333372 0
0.346666664 -0.1133333372 0
0.3333333432 -0.1133333372 0
0.3199999928 -0.1133333372 0
0.3066666724 -0.1133333372 0
0.293333322 -0.1133333372 0
0.2800000012 -0.1133333372 0
0.2666666804 -0.1133333372 0
0.25333333 -0.1133333372 0
0.2399999948 -0.1133333372 0
0.226666674 -0.1133333372 0
0.2133333384 -0.1133333372 0
0.2000000028 -0.1133333372 0
0.1866666676 -0.1133333372 0
0.173333332 -0.1133333372 0
0.1599999964 -0.1133333372 0
0.1466666608 -0.1133333372 0
0.1333333404 -0.1133333372 0
0.1199999972 -0.1133333372 0
0.1066666692 -0.1133333372 0
0.0933333336 -0.1133333372 0
0.0799999984 -0.1133333372 0
0.06666667 -0.1133333372 0
0.0533333348 -0.1133333372 0
0.03999999912 -0.1133333372 0
0.02666666732 -0.1133333372 0
0.01333333364 -0.1133333372 0
0.0 -0.1133333372 0
0.400000004 -0.1266666652 0
0.3866666556 -0.1266666652 0
0.3733333348 -0.1266666652 0
[...]
POINT_DATA 961
SCALARS Temp float 1
LOOKUP_TABLE default
0.7646465571947558
0.795193057997538
0.8171276499945272
0.8330891333238987
0.8447963631006769
0.8534280546982833
0.8598234580786888
0.8645867249396046
0.8681576803690189
0.8708586905629427
0.8729288674650312
0.8745477842483068
0.8758527783122955
0.8769524195135552
0.877936558525097
0.878884297612109
0.8798712910317453
0.8809764555516182
0.8822890205757801
0.8839165939215817
0.8859949847713239
0.8887011373313352
0.8922696149704051
0.8970160253549774
0.9033684660949063
0.9119121545829754
0.9234530149459413
0.9391107109295119
0.9604603878888818
0.9897878740754331
1.03072075775048
0.8069837138194381
0.8369359429719768
0.8586351204098366
0.8745092758909545
0.886176340605914
0.8947915250013644
0.9011819450997343
0.9059459753479667
0.9095204205203777
0.9122260738594269
0.9143012383945067
0.9159251054122145
0.9172348755908641
0.918339113428572
0.9193277372363509
0.9202799598530573
0.9212715616869438
0.9223815848238732
0.9236993637580402
0.9253325627140887
0.9274169535553975
0.9301292632866335
0.9337035280087878
0.9384542557614519
0.9448074193960466
0.9533441934814925
0.964862739169489
0.9804666827315736
1.001697767002864
1.030726511436029
1.070695677794341
2.7890952746683944
2.7935494492619406
2.805963541432685
2.8174219685378183
2.8269067818375473
2.834463084859004
2.8403894629496396
2.8450086848174063
2.8486072245823233
2.851422959589999
2.8536484369763997
2.855438556837112
2.856918910465809
2.8581935838905235
2.8593521040240337
2.860475650212362
2.8616428319795677
2.862935355288567
2.864443883296647
2.8662744554068986
2.868555822357485
2.871447939272517
2.8751517596315397
2.879919941604825
2.886066778904059
2.893972219254437
2.904065204395277
2.916742362237432
2.9320618414141775
2.948651432250727
2.9546072430826094
4.746391540928741
4.748823754273734
4.754795298808707
4.762261001380482
4.769346504488346
4.7754975031903335
4.780623101696172
4.7848081648775125
4.788193778501635
4.790928840293361
4.7931515842907615
4.794984040582021
4.7965322439977
4.797888919024915
4.799137127711464
4.800354273527584
4.801616248800264
4.8030016626606855
4.80459618268325
4.806497000437791
4.808817323687917
4.811690578900246
4.815273393089412
4.819745466022426
4.82530182574654
4.832127757087334
4.840333934057653
4.84979624177435
4.8597705270688785
4.867750170491034
4.871000037934091
6.697821255885771
6.699117141266919
6.7026202569439945
6.707366101461933
6.712424666274119
6.717183991327396
6.721391728426995
6.724987772457713
6.72800577064492
6.730519738115889
6.732617116985919
6.7343859492207745
6.735909628341625
6.7372656792959935
6.738526622407866
6.739761929695032
6.74104054479793
6.7424336385621295
6.7440173886615415
6.745875535082642
6.748101310123737
6.7507980314518266
6.754076943960408
6.758049843786559
6.76281162010102
6.768403910278273
6.774743609906731
6.781490881800671
6.787825723817049
6.79250344679142
6.794234125420952
8.645671948118741
8.646462329743716
8.64864993196992
8.651783839997066
8.655342059118425
8.658907984470359
8.662226954779687
8.66518374629168
8.667751335647834
8.669952214392934
8.671833875434022
8.673454561905388
8.674875696382161
8.676158428064179
8.677362604283894
8.678547152838796
8.679771238540836
8.681095732690798
8.682584640978762
8.684306094686562
8.686332356981897
8.688738011210875
8.69159491236571
8.694961768518366
8.698864825631201
8.703264823326975
8.708005183201236
8.712743339196393
8.716920721437935
8.719838345834413
8.720892740426663
10.591077035433813
10.591581352895064
10.593003598712164
10.595107443592465
10.597597389969081
10.600203422592894
10.602729548633842
10.605060674655766
10.607146837803135
10.608981961404513
10.61058658286083
10.611995887026517
10.613252273006331
10.614401213382717
10.615489287015787
10.616563584310244
10.617671902453118
10.61886325718808
10.620188316784752
10.621699326534442
10.623448972488003
10.625487435675987
10.627856523139625
10.63057950093937
10.63364488716327
10.636983146599693
10.640438223576503
10.64374631472916
10.646545097598247
10.648438561568195
10.649110197821775
12.53453225407134
12.534857931869468
12.535786609891895
12.537189251865753
12.53889538064288
12.54073645056943
12.54257636078702
12.544323380505938
12.545927658962356
12.547371917563638
12.548661259052194
12.549814780244708
12.550859644577113
12.551827343032794
12.552751580673974
12.553667271798208
12.554610202124858
12.555616957471415
12.556724766347234
12.557970874486319
12.559390993898218
12.561016268186613
12.562868036091734
12.564949743950804
12.567235579267908
12.569656688503851
12.572088683638148
12.574348200989244
12.576208855069522
12.57744197881075
12.577874616862955
14.476281024201317
14.47648290040178
14.477062840497757
14.477951058636325
14.479052168478727
14.48026698024369
14.48150995357417
14.482718366416577
14.48385378593313
14.484898647080442
14.48585106836666
14.48671982805138
14.487520403463902
14.488272231686317
14.488996992115831
14.489717637757355
14.490457895701224
14.491241954218939
14.49209407778882
14.493037871525022
14.494094878870799
14.495282164918752
14.496608503780346
14.498068982259268
14.499638183849187
14.501263152891475
14.502858787967124
14.504309730691656
14.505482627004824
14.506249421344068
14.506516501267471
16.416439697605167
16.416546325160112
16.416854428565976
16.417331660920162
16.417932841600674
16.41860945708137
16.419317837710896
16.42002411678428
16.4207058127
16.421350922166244
16.421955823701275
16.422522941489248
16.423058733303538
16.42357219502324
16.42407384634049
16.4245750916917
16.425087825258636
16.42562413134405
16.426195941510393
16.426814499416004
16.427489471477806
16.428227542458995
16.429030344347762
16.429891721817203
16.430794560891776
16.43170793239611
16.432585865865317
16.433369422935286
16.43399332973782
16.434396887132007
16.434536674564942
18.355062326584715
18.355086617073027
18.355158117042684
18.355272959875165
18.355425447167825
18.355608927431835
18.355816664834155
18.35604251232457
18.356281324829823
18.35652911186616
18.356783010780717
18.35704114492623
18.35730243485473
18.35756640639742
18.35783300872787
18.358102448688122
18.358375040880077
18.358651060315047
18.358930587882266
18.359213337175262
18.359498453357826
18.35978428339699
18.360068120312484
18.36034595915525
18.360612309000587
18.36086015346297
18.36108116040046
18.361266228621943
18.361406392565208
18.36149398048355
18.361523791108038
18.463216595992456
18.463237060356267
18.46329751599895
18.46339529525332
18.463526393241427
18.463686005490082
18.46386908941784
18.4640708353412
18.464286998146452
18.464514066056655
18.464749304372116
18.464990702057825
18.46523686443269
18.465486884999795
18.46574020847123
18.46599649446822
18.466255486603373
18.466516879968417
18.46678018348007
18.467044572181482
18.467308726974363
18.46757066726381
18.467827583591273
18.468075704881883
18.468310230962125
18.468525389758746
18.4687146695743
18.46887125865423
18.46898867985582
18.469061539036826
18.46908624578966
18.57124735507692
18.571264982927588
18.571317203433978
18.571402115419467
18.5715168212527
18.571657765792363
18.571821106098866
18.57200304005258
18.57220006094849
18.572409110391547
18.572627647570638
18.572853642986413
18.57308552292266
18.573322087790764
18.573562412967313
18.573805741683817
18.57405137705127
18.57429857015367
18.574546404798564
18.57479367834732
18.57503878005577
18.57527957489991
18.57551330014566
18.57573650311108
18.57594503826554
18.57613416037032
18.576298736263393
18.576433582897348
18.57653391190338
18.576595822455864
18.57661675654685
18.679159974798935
18.679175460037015
18.679221431553465
18.679296492135215
18.679398485016854
18.679524713326614
18.679672188120577
18.67983785854875
18.680018803459568
18.680212358949177
18.68041619137665
18.680628313915744
18.680847062331004
18.681071045676
18.681299076972124
18.681530092192933
18.681763065290017
18.681996918335322
18.682230429760295
18.68246214258216
18.6826902759437
18.6829126482981
18.683126617918674
18.68332906299614
18.683516410174114
18.683684733956
18.683829935092994
18.683947995612126
18.684035291997482
18.684088926117763
18.68410702091239
18.78695842574203
18.78697227139214
18.78701344362476
18.787080884237152
18.787172941771722
18.787287517012103
18.787422232474444
18.787574594823646
18.787742138075753
18.787922525801218
18.78811361847746
18.788313499417722
18.788520468686652
18.788733015638567
18.788949772256057
18.789169454049805
18.78939079599796
18.789612483553235
18.789833082817584
18.79005097291093
18.790264284447616
18.790470851762592
18.7906681825634
18.790853462187595
18.79102359510957
18.79117529760579
18.79130524254272
18.79141025062541
18.791487513203464
18.791534818806195
18.791550750136505
18.894645638110482
18.894658220642288
18.894695684914193
18.894757204944128
18.8948414792346
18.894946829361103
18.895071317924753
18.895212864281795
18.89536935166291
18.895538707464993
18.8957189617859
18.895908275770203
18.896104945601085
18.896307389515073
18.8965141179424
18.896723692078986
18.896934677713503
18.89714559457403
18.8973548655928
18.897560769405754
18.89776139985842
18.89795463908173
18.898138145981513
18.89830937351305
18.89846561351456
18.89860407808927
18.898722015237176
18.898816852575987
18.898886357896593
18.898928797305995
18.898943069675838
18.998476802599686
18.998488375464433
18.998522867433437
18.99857961504269
18.99865756401285
18.998755337396826
18.998871319141795
18.999003737454654
18.999150745373854
18.99931048331199
18.99948112849021
18.99966092236705
18.99984817992131
19.00004128613002
19.000238678360965
19.000438818783174
19.000640162842366
19.00084112392393
19.001040038426602
19.001235134378042
19.00142450687502
19.00160610578854
19.001777736117376
19.001937081627783
19.002081748288376
19.002209333714347
19.00231751903974
19.002404177642074
19.002467492505993
19.00250606877296
19.00251902761186
19.09469612619311
19.094706846510924
19.09473882137966
19.094791504031477
19.094864019226407
19.09495521122289
19.095063704002552
19.095187962008808
19.095326351260642
19.095477187983654
19.095638779830207
19.09580945099556
19.095987554021956
19.09617147237414
19.096359611644917
19.09655038255424
19.096742181022123
19.09693336513767
19.097122232834288
19.097307002990426
19.097485802634715
19.097656664677586
19.09781753548531
19.09796630099427
19.098100826658165
19.09821901589294
19.09831888312928
19.098398636799182
19.09845676639005
19.098492124032525
19.09850399143319
19.183309735760545
19.183319720306834
19.18334951743574
19.183398665832648
19.183466422374057
19.183551796490626
19.18365359433579
19.183770463591838
19.183900940348476
19.184043487053742
19.18419652680471
19.184358465771155
19.184527705979516
19.184702651762635
19.184881707235004
19.18506326724302
19.18524570638027
19.185427365551853
19.18560653940174
19.18578146683976
19.185950326752717
19.18611124246552
19.186262293531485
19.18640154217488
19.1865270691072
19.18663702252199
19.18672967651174
19.186803495132555
19.186857197993444
19.18688982050141
19.186900762573828
19.26435021780218
19.26435955621348
19.26438743694242
19.264433462476475
19.26449698903521
19.26457715161712
19.264672896982603
19.264783017161793
19.264906185910625
19.265040988561655
19.265185950680866
19.265339557900035
19.2655002688551
19.265666524047887
19.265836747729303
19.266009344720405
19.26618269616635
19.266355153396287
19.26652503271016
19.266690612860558
19.266850136788783
19.267001820490137
19.26714386710603
19.267274492579226
19.26739195740652
19.267494607810114
19.267580922879784
19.267649564693475
19.26769942856089
19.267729688350812
19.26773983266953
19.337873649132096
19.33788241324781
19.337908587779197
19.337951823759393
19.338011553498816
19.33808700916905
19.338177247905396
19.338281177248703
19.33839758395203
19.338525157730878
19.338662515436067
19.33880821859136
19.33896078606964
19.339118704405607
19.339280432734288
19.33944440387515
19.339609025057506
19.33977267720318
19.339933715141107
19.340090470108045
19.340241255658505
19.340384379314656
19.340518157759185
19.340640941183075
19.340751141354424
19.34084726644639
19.340927959530053
19.34099203837685
19.341038534628122
19.34106672856038
19.341076176509148
19.4039557590396
19.403964009558123
19.40398865618237
19.404029387537552
19.404085695223507
19.40415688786446
19.404242110603764
19.40434036475154
19.40445053095859
19.404571388389744
19.404701635371048
19.404839904983632
19.404984777287808
19.405134790457126
19.405288447795805
19.40544422186384
19.405600558793928
19.405755881518285
19.40590859389741
19.4060570867602
19.406199746630026
19.4063349690464
19.406461174120576
19.406576829391913
19.406680474699016
19.40677075192542
19.40684643686403
19.40690647134746
19.40694999435389
19.40697636920632
19.406985204797714
19.462687778393665
19.462695569601863
19.46271884839428
19.462757332944282
19.462810561724382
19.462877904344563
19.462958577021972
19.463051658043856
19.46315610677967
19.463270779427035
19.463394446906946
19.4635258088523
19.46366350531487
19.463806128311003
19.46395223021868
19.464100330029524
19.46424892020329
19.46439647270028
19.464541445867987
19.46468229291368
19.464817472468333
19.464945462827888
19.465064777434282
19.46517398624094
19.465271737880066
19.46535678536529
19.465428012874938
19.465484462149583
19.465525357679507
19.46555012842757
19.46555842461371
19.514170647205162
19.514178030298623
19.514200092749483
19.514236576205228
19.514287056571302
19.51435095255881
19.514427538245364
19.51451595550398
19.51461522993133
19.514724284031505
19.514841952973377
19.514966997274954
19.515098113995307
19.515233948430588
19.5153731033958
19.515514146930535
19.515655620902614
19.515796048989486
19.51593394545866
19.516067825262322
19.51619621574796
19.516317671323883
19.516430788623964
19.516534226481557
19.516626725851243
19.516707132312952
19.516774418959074
19.51682770849308
19.516866294044757
19.51688965689775
19.516897480061917
19.558510641784384
19.558517667115776
19.558538662651248
19.558573388767893
19.55862145137711
19.558682308831084
19.55875528237367
19.5588395663658
19.558934241927503
19.55903828821113
19.5591505965068
19.55926998188131
19.559395193892634
19.559524928277067
19.559657836771642
19.559792535786702
19.55992761618153
19.560061652564166
19.560193213334802
19.560320871822597
19.560443218667345
19.560558876597064
19.560666515162392
19.560764869469523
19.560852758265987
19.56092910393067
19.560992952379234
19.56104349193534
19.561080070905874
19.561102212378927
19.561109625459046
19.595813045666088
19.595819764187556
19.59583984434345
19.595873061387024
19.595919045156553
19.595977285806825
19.59604714273078
19.596127853189316
19.596218544264314
19.59631824271679
19.596425887826747
19.59654034220688
19.59666040209627
19.596784808950623
19.596912259573223
19.597041415409247
19.597170913081214
19.59729937455383
19.597425417990912
19.597547669531664
19.597664776027614
19.59777541975076
19.597878332668206
19.59797231410991
19.59805624738006
19.5981291177923
19.598190030308096
19.598238225994933
19.598273097205247
19.59829420022762
19.598301264820645
19.62617763250746
19.62618409658043
19.62620341732695
19.626235381613093
19.626279638016303
19.626335701722553
19.626402962350586
19.626480691438136
19.626568053162924
19.626664113166527
19.62676785044165
19.626878167508647
19.626993900356155
19.62711382989624
19.627236692254186
19.6273611884469
19.627485995391716
19.62760977661862
19.627731193630222
19.627848918047526
19.627961644504374
19.62806810519772
19.628167083729462
19.628257431896543
19.628338085148563
19.62840807913192
19.628466565631676
19.628512827248766
19.62854629082632
19.628566538543037
19.628573316219413
19.64969342585201
19.64969968957785
19.64971841223948
19.64974938943669
19.649792283876042
19.649846629690288
19.64991183949458
19.649987211074524
19.650071937233314
19.650165113881876
19.650265751232673
19.650372783503055
19.650485078576217
19.650601449319552
19.650720663943083
19.650841455903514
19.650962535193994
19.65108259938753
19.651200345292672
19.651314481296794
19.651423740305958
19.651526894114326
19.65162276687802
19.651710251220326
19.651788322823457
19.651856055875843
19.65191263778472
19.65195738257759
19.651989743082154
19.65200932091884
19.652015873943498
19.666434330332354
19.666440449517772
19.66645874062036
19.66648900533744
19.666530916258544
19.66658402080694
19.666647747789256
19.66672141355879
19.666804231279947
19.66689531852998
19.666993708020865
19.66709835697617
19.66720815658995
19.66732194323099
19.667438508822446
19.667556610869696
19.66767498390606
19.667792350724355
19.66790743419491
19.668018969704
19.66812571808726
19.668226479840627
19.668320108315953
19.6684055253363
19.6684817351856
19.668547839304072
19.66860305016794
19.668646703834014
19.668678271286936
19.668697367699938
19.668703759305373
19.676455932966004
19.676461964816994
19.67647999513562
19.67650982922663
19.67655114553373
19.676603499367367
19.676666329166434
19.676738962363427
19.67682062431549
19.676910445626067
19.677007472593033
19.677110676393845
19.677218962422273
19.67733118141792
19.67744613984785
19.677562609994347
19.677679341476747
19.677795072577112
19.677908542136876
19.678018502034654
19.678123730100584
19.678223044221298
19.67831531536262
19.67839948289086
19.67847456820737
19.67853968900505
19.67859407266557
19.678637068310273
19.678668157669623
19.678686963925315
19.678693258254302
19.6797925754406
19.679798578074998
19.679816521147487
19.679846211157276
19.679887328487606
19.679939431064472
19.680001960524766
19.68007424798493
19.680155522863263
19.680244920110493
19.680341490568157
19.680444210090343
19.680551988839724
19.68066368239114
19.680778102112086
19.68089402526809
19.68101020656703
19.68112538951329
19.68123831832731
19.681347750433737
19.681452469367056
19.681551298839217
19.681643115704038
19.681726865180195
19.68180157436858
19.681866366364545
19.681920473496934
19.68196324921779
19.68199417881604
19.682012888123314
19.682019149951895
