# vtk DataFile Version 2.0
Unstructured Grid Example
ASCII
DATASET UNSTRUCTURED_GRID

POINTS 961 float
0.400000004 0.01999999956 0
0.3866666556 0.01999999956 0
0.3733333348 0.01999999956 0
0.3600000144 0.01999999956 0
0.346666664 0.01999999956 0
0.3333333432 0.01999999956 0
0.3199999928 0.01999999956 0
0.3066666724 0.01999999956 0
0.293333322 0.01999999956 0
0.2800000012 0.01999999956 0
0.2666666804 0.01999999956 0
0.25333333 0.01999999956 0
0.2399999948 0.01999999956 0
0.226666674 0.01999999956 0
0.2133333384 0.01999999956 0
0.2000000028 0.01999999956 0
0.1866666676 0.01999999956 0
0.173333332 0.01999999956 0
0.1599999964 0.01999999956 0
0.1466666608 0.01999999956 0
0.1333333404 0.01999999956 0
0.1199999972 0.01999999956 0
0.1066666692 0.01999999956 0
0.0933333336 0.01999999956 0
0.0799999984 0.01999999956 0
0.06666667 0.01999999956 0
0.0533333348 0.01999999956 0
0.03999999912 0.01999999956 0
0.02666666732 0.01999999956 0
0.01333333364 0.01999999956 0
0.0 0.01999999956 0
0.400000004 0.00666666684 0
0.3866666556 0.00666666684 0
0.3733333348 0.00666666684 0
0.3600000144 0.00666666684 0
0.346666664 0.00666666684 0
0.3333333432 0.00666666684 0
0.3199999928 0.00666666684 0
0.3066666724 0.00666666684 0
0.293333322 0.00666666684 0
0.2800000012 0.00666666684 0
0.2666666804 0.00666666684 0
0.25333333 0.00666666684 0
0.2399999948 0.00666666684 0
0.226666674 0.00666666684 0
0.2133333384 0.00666666684 0
0.2000000028 0.00666666684 0
0.1866666676 0.00666666684 0
0.173333332 0.00666666684 0
0.1599999964 0.00666666684 0
0.1466666608 0.00666666684 0
0.1333333404 0.00666666684 0
0.1199999972 0.00666666684 0
0.1066666692 0.00666666684 0
0.0933333336 0.00666666684 0
0.0799999984 0.00666666684 0
0.06666667 0.00666666684 0
0.0533333348 0.00666666684 0
0.03999999912 0.00666666684 0
0.02666666732 0.00666666684 0
0.01333333364 0.00666666684 0
0.0 0.00666666684 0
0.400000004 -0.00666666684 0
0.3866666556 -0.00666666684 0
0.3733333348 -0.00666666684 0
0.3600000144 -0.00666666684 0
0.346666664 -0.00666666684 0
0.3333333432 -0.00666666684 0
0.3199999928 -0.00666666684 0
0.3066666724 -0.00666666684 0
0.293333322 -0.00666666684 0
0.2800000012 -0.00666666684 0
0.2666666804 -0.00666666684 0
0.25333333 -0.00666666684 0
0.2399999948 -0.00666666684 0
0.226666674 -0.00666666684 0
0.2133333384 -0.00666666684 0
0.2000000028 -0.00666666684 0
0.1866666676 -0.00666666684 0
0.173333332 -0.00666666684 0
0.1599999964 -0.00666666684 0
0.1466666608 -0.00666666684 0
0.1333333404 -0.00666666684 0
0.1199999972 -0.00666666684 0
0.1066666692 -0.00666666684 0
0.0933333336 -0.00666666684 0
0.0799999984 -0.00666666684 0
0.06666667 -0.00666666684 0
0.0533333348 -0.00666666684 0
0.03999999912 -0.00666666684 0
0.02666666732 -0.00666666684 0
0.01333333364 -0.00666666684 0
0.0 -0.00666666684 0
0.400000004 -0.01999999956 0
0.3866666556 -0.01999999956 0
0.3733333348 -0.01999999956 0
0.3600000144 -0.01999999956 0
0.346666664 -0.01999999956 0
0.3333333432 -0.01999999956 0
0.3199999928 -0.01999999956 0
0.3066666724 -0.01999999956 0
0.293333322 -0.01999999956 0
0.2800000012 -0.01999999956 0
0.2666666804 -0.01999999956 0
0.25333333 -0.01999999956 0
0.2399999948 -0.01999999956 0
0.226666674 -0.01999999956 0
0.2133333384 -0.01999999956 0
0.2000000028 -0.01999999956 0
0.1866666676 -0.01999999956 0
0.173333332 -0.01999999956 0
0.1599999964 -0.01999999956 0
0.1466666608 -0.01999999956 0
0.1333333404 -0.01999999956 0
0.1199999972 -0.01999999956 0
0.1066666692 -0.01999999956 0
0.0933333336 -0.01999999956 0
0.0799999984 -0.01999999956 0
0.06666667 -0.01999999956 0
0.0533333348 -0.01999999956 0
0.03999999912 -0.01999999956 0
0.02666666732 -0.01999999956 0
0.01333333364 -0.01999999956 0
0.0 -0.01999999956 0
0.400000004 -0.03333333508 0
0.3866666556 -0.03333333508 0
0.3733333348 -0.03333333508 0
0.3600000144 -0.03333333508 0
0.346666664 -0.03333333508 0
0.3333333432 -0.03333333508 0
0.3199999928 -0.03333333508 0
0.3066666724 -0.03333333508 0
0.293333322 -0.03333333508 0
0.2800000012 -0.03333333508 0
0.2666666804 -0.03333333508 0
0.25333333 -0.03333333508 0
0.2399999948 -0.03333333508 0
0.226666674 -0.03333333508 0
0.2133333384 -0.03333333508 0
0.2000000028 -0.03333333508 0
0.1866666676 -0.03333333508 0
0.173333332 -0.03333333508 0
0.1599999964 -0.03333333508 0
0.1466666608 -0.03333333508 0
0.1333333404 -0.03333333508 0
0.1199999972 -0.03333333508 0
0.1066666692 -0.03333333508 0
0.0933333336 -0.03333333508 0
0.0799999984 -0.03333333508 0
0.06666667 -0.03333333508 0
0.0533333348 -0.03333333508 0
0.03999999912 -0.03333333508 0
0.02666666732 -0.03333333508 0
0.01333333364 -0.03333333508 0
0.0 -0.03333333508 0
0.400000004 -0.0466666668 0
0.3866666556 -0.0466666668 0
0.3733333348 -0.0466666668 0
0.3600000144 -0.0466666668 0
0.346666664 -0.0466666668 0
0.3333333432 -0.0466666668 0
0.3199999928 -0.0466666668 0
0.3066666724 -0.0466666668 0
0.293333322 -0.0466666668 0
0.2800000012 -0.0466666668 0
0.2666666804 -0.0466666668 0
0.25333333 -0.0466666668 0
0.2399999948 -0.0466666668 0
0.226666674 -0.0466666668 0
0.2133333384 -0.0466666668 0
0.2000000028 -0.0466666668 0
0.1866666676 -0.0466666668 0
0.173333332 -0.0466666668 0
0.1599999964 -0.0466666668 0
0.1466666608 -0.0466666668 0
0.1333333404 -0.0466666668 0
0.1199999972 -0.0466666668 0
0.1066666692 -0.0466666668 0
0.0933333336 -0.0466666668 0
0.0799999984 -0.0466666668 0
0.06666667 -0.0466666668 0
0.0533333348 -0.0466666668 0
0.03999999912 -0.0466666668 0
0.02666666732 -0.0466666668 0
0.01333333364 -0.0466666668 0
0.0 -0.0466666668 0
0.400000004 -0.0599999988 0
0.3866666556 -0.0599999988 0
0.3733333348 -0.0599999988 0
0.3600000144 -0.0599999988 0
0.346666664 -0.0599999988 0
0.3333333432 -0.0599999988 0
0.3199999928 -0.0599999988 0
0.3066666724 -0.0599999988 0
0.293333322 -0.0599999988 0
0.2800000012 -0.0599999988 0
0.2666666804 -0.0599999988 0
0.25333333 -0.0599999988 0
0.2399999948 -0.0599999988 0
0.226666674 -0.0599999988 0
0.2133333384 -0.0599999988 0
0.2000000028 -0.0599999988 0
0.1866666676 -0.0599999988 0
0.173333332 -0.0599999988 0
0.1599999964 -0.0599999988 0
0.1466666608 -0.0599999988 0
0.1333333404 -0.0599999988 0
0.1199999972 -0.0599999988 0
0.1066666692 -0.0599999988 0
0.0933333336 -0.0599999988 0
0.0799999984 -0.0599999988 0
0.06666667 -0.0599999988 0
0.0533333348 -0.0599999988 0
0.03999999912 -0.0599999988 0
0.02666666732 -0.0599999988 0
0.01333333364 -0.0599999988 0
0.0 -0.0599999988 0
0.400000004 -0.0733333304 0
0.3866666556 -0.0733333304 0
0.3733333348 -0.0733333304 0
0.3600000144 -0.0733333304 0
0.346666664 -0.0733333304 0
0.3333333432 -0.0733333304 0
0.3199999928 -0.0733333304 0
0.3066666724 -0.0733333304 0
0.293333322 -0.0733333304 0
0.2800000012 -0.0733333304 0
0.2666666804 -0.0733333304 0
0.25333333 -0.0733333304 0
0.2399999948 -0.0733333304 0
0.226666674 -0.0733333304 0
0.2133333384 -0.0733333304 0
0.2000000028 -0.0733333304 0
0.1866666676 -0.0733333304 0
0.173333332 -0.0733333304 0
0.1599999964 -0.0733333304 0
0.1466666608 -0.0733333304 0
0.1333333404 -0.0733333304 0
0.1199999972 -0.0733333304 0
0.1066666692 -0.0733333304 0
0.0933333336 -0.0733333304 0
0.0799999984 -0.0733333304 0
0.06666667 -0.0733333304 0
0.0533333348 -0.0733333304 0
0.03999999912 -0.0733333304 0
0.02666666732 -0.0733333304 0
0.01333333364 -0.0733333304 0
0.0 -0.0733333304 0
0.400000004 -0.086666666 0
0.3866666556 -0.086666666 0
0.3733333348 -0.086666666 0
0.3600000144 -0.086666666 0
0.346666664 -0.086666666 0
0.3333333432 -0.086666666 0
0.3199999928 -0.086666666 0
0.3066666724 -0.086666666 0
0.293333322 -0.086666666 0
0.2800000012 -0.086666666 0
0.2666666804 -0.086666666 0
0.25333333 -0.086666666 0
0.2399999948 -0.086666666 0
0.226666674 -0.086666666 0
0.2133333384 -0.086666666 0
0.2000000028 -0.086666666 0
0.1866666676 -0.086666666 0
0.173333332 -0.086666666 0
0.1599999964 -0.086666666 0
0.1466666608 -0.086666666 0
0.1333333404 -0.086666666 0
0.1199999972 -0.086666666 0
0.1066666692 -0.086666666 0
0.0933333336 -0.086666666 0
0.0799999984 -0.086666666 0
0.06666667 -0.086666666 0
0.0533333348 -0.086666666 0
0.03999999912 -0.086666666 0
0.02666666732 -0.086666666 0
0.01333333364 -0.086666666 0
0.0 -0.086666666 0
0.400000004 -0.1000000016 0
0.3866666556 -0.1000000016 0
0.3733333348 -0.1000000016 0
0.3600000144 -0.1000000016 0
0.346666664 -0.1000000016 0
0.3333333432 -0.1000000016 0
0.3199999928 -0.1000000016 0
0.3066666724 -0.1000000016 0
0.293333322 -0.1000000016 0
0.2800000012 -0.1000000016 0
0.2666666804 -0.1000000016 0
0.25333333 -0.1000000016 0
0.2399999948 -0.1000000016 0
0.226666674 -0.1000000016 0
0.2133333384 -0.1000000016 0
0.2000000028 -0.1000000016 0
0.1866666676 -0.1000000016 0
0.173333332 -0.1000000016 0
0.1599999964 -0.1000000016 0
0.1466666608 -0.1000000016 0
0.1333333404 -0.1000000016 0
0.1199999972 -0.1000000016 0
0.1066666692 -0.1000000016 0
0.0933333336 -0.1000000016 0
0.0799999984 -0.1000000016 0
0.06666667 -0.1000000016 0
0.0533333348 -0.1000000016 0
0.03999999912 -0.1000000016 0
0.02666666732 -0.1000000016 0
0.01333333364 -0.1000000016 0
0.0 -0.1000000016 0
0.400000004 -0.1133333372 0
0.3866666556 -0.1133333372 0
0.3733333348 -0.1133333372 0
0.3600000144 -0.1133333372 0
0.346666664 -0.1133333372 0
0.3333333432 -0.1133333372 0
0.3199999928 -0.1133333372 0
0.3066666724 -0.1133333372 0
0.293333322 -0.1133333372 0
0.2800000012 -0.1133333372 0
0.2666666804 -0.1133333372 0
0.25333333 -0.1133333372 0
0.2399999948 -0.1133333372 0
0.226666674 -0.1133333372 0
0.2133333384 -0.1133333372 0
0.2000000028 -0.1133333372 0
0.1866666676 -0.1133333372 0
0.173333332 -0.1133333372 0
0.1599999964 -0.1133333372 0
0.1466666608 -0.1133333372 0
0.1333333404 -0.1133333372 0
0.1199999972 -0.1133333372 0
0.1066666692 -0.1133333372 0
0.0933333336 -0.1133333372 0
0.0799999984 -0.1133333372 0
0.06666667 -0.1133333372 0
0.0533333348 -0.1133333372 0
0.03999999912 -0.1133333372 0
0.02666666732 -0.1133333372 0
0.01333333364 -0.1133333372 0
0.0 -0.1133333372 0
0.400000004 -0.1266666652 0
0.3866666556 -0.1266666652 0
0.3733333348 -0.1266666652 0
[...]
POINT_DATA 961
SCALARS Temp float 1
LOOKUP_TABLE default
0.6757252514129287
0.7027139190851333
0.7220819392295595
0.7361643790720488
0.7464826871606768
0.7540801548201737
0.7596995405626186
0.7638754535820826
0.7669970042498995
0.7693492984802369
0.771143717980226
0.7725389166531225
0.7736561396355299
0.7745911455557071
0.7754231021913827
0.7762216432399893
0.7770533303220951
0.7779875932316289
0.7791029704963166
0.7804942486984194
0.7822811571135762
0.784619814638502
0.7877173212157764
0.7918524897689124
0.7974036792506904
0.804888294705467
0.8150190633230517
0.8287863651424439
0.8475836391663297
0.8734331689728552
0.9095428052403746
0.713215231959879
0.7396795253201423
0.758839517267523
0.7728448698529363
0.7831277432738509
0.7907106622804864
0.7963256616357594
0.8005022467551279
0.8036268611289714
0.8059832230412962
0.8077820017879487
0.8091815161749369
0.8103028928206574
0.8112418878755034
0.8120777311311445
0.8128801562606809
0.8137158387051703
0.8146543214783027
0.8157742386594043
0.817170429658439
0.8189625941563666
0.821306663058155
0.8244092750438968
0.8285482770211524
0.8341001574587704
0.8415787580744153
0.8516899589441658
0.8654099865810576
0.88410281181904
0.9096887887888018
0.9449493985021314
2.468461240995033
2.472392899070427
2.483350533945668
2.4934567027904855
2.5018136079685234
2.508462504596426
2.513668300686629
2.517716975785815
2.5208621967905027
2.523314499511776
2.525244217112459
2.5267883031701546
2.528057726365356
2.52914438664003
2.5301272701824535
2.5310779528967777
2.5320657187624684
2.5331625795838333
2.5344484673649887
2.536016921983274
2.537981591762405
2.5404837621866854
2.543701042633956
2.547856869686328
2.553229343240821
2.560154864981139
2.5690135521258317
2.580157623567701
2.5936413473096707
2.6082575872555154
2.6135049752690245
4.20183252351699
4.203978055015881
4.2092439829317065
4.215823884413674
4.222062496911375
4.227471072379946
4.2319701971859605
4.235635578869001
4.238592425135683
4.240972693308841
4.242898791199143
4.244478706851833
4.245806215039669
4.246963268114956
4.24802323566681
4.249054457222714
4.250123920613317
4.251301011866583
4.252661366737545
4.254290834119383
4.25628946692209
4.258775262364478
4.261886832697272
4.265783339086245
4.270637713927802
4.276614600081536
4.2838131734080855
4.292125840199638
4.300898254207546
4.307920895511539
4.310782156832072
5.930084470004953
5.93122623968188
5.934311944670734
5.938489826410916
5.942938816347276
5.9471189483206155
5.95080798100203
5.953953442601856
5.956585584304926
5.958770213438122
5.96058490081894
5.962107662962179
5.9634123412079125
5.964567538649235
5.96563739786639
5.9666833433130355
5.967766321092599
5.968949247745137
5.9702994817048305
5.971891099228033
5.973806621536513
5.9761375657467735
5.9789825730916695
5.98244093586133
5.986597230633156
5.991489282393578
5.997045101907616
6.002966398713349
6.008531317408392
6.01264316927405
6.01416491433446
7.655247452928652
7.655942808442968
7.657866820229017
7.660621407756523
7.663745843981491
7.666872605157179
7.669777267768117
7.67235857240116
7.6745931237908245
7.676501201566191
7.678125103036953
7.67951655990645
7.680730059984137
7.681819807563158
7.682838826327768
7.683839309036348
7.684873651139303
7.685995761938388
7.687262340502597
7.688733768096576
7.690474133818196
7.692549658107783
7.695024262803834
7.69795040242241
7.701352043467421
7.705195520296231
7.709343811232564
7.7134959021330065
7.717160201372431
7.719721075619075
7.720646830125093
9.378331082312046
9.378773872341034
9.380022184672471
9.381867455545166
9.384048967367496
9.386328594990038
9.388533646138999
9.390562900085245
9.392372650112996
9.393957921513437
9.395337207548213
9.396541899556588
9.397609725790522
9.398581100264689
9.399497393225213
9.400400414966596
9.401332597771905
9.4023374586688
9.403459994812707
9.404746630726283
9.406244231051126
9.407997517518087
9.410043907615297
9.412404558468552
9.415070077259445
9.417979957680993
9.420997443592084
9.423890753542723
9.426341144072214
9.42800000450301
9.428588611963141
11.099780449379502
11.100065561774166
11.100878239433266
11.10210465881919
11.103594480863784
11.105199142647272
11.106798785760612
11.10831276643475
11.109697435705272
11.11093790460984
11.112039034768753
11.11301802785504
11.113899191401462
11.114710639252213
11.115482429674277
11.116245683864499
11.117032294017099
11.117874867903588
11.118806598505557
11.119860721613026
11.121069157688074
11.12245984465077
11.124052128028513
11.125849632333189
11.12783023505537
11.129933899711572
11.13205163225782
11.134022406611024
11.135647183713184
11.136724786616515
11.137102997923831
12.819816642027371
12.819992508600095
12.820497460240825
12.821269979791605
12.822226010678968
12.823278197376855
12.824351285757716
12.825390206776639
12.826361361815893
12.827249590961019
12.828053586859372
12.82878145415879
12.82944721046321
12.830068367176812
12.830664414433578
12.831255968345937
12.83186433288693
12.832511227490764
12.833218451727184
12.834007241192388
12.834897035537523
12.83590335116852
12.837034422067475
12.838286440350899
12.83963754094141
12.841041585464293
12.842424080589419
12.843683816804297
12.844703648711942
12.845371003817064
12.845603554991936
14.538547413381293
14.538639246051844
14.538904372826504
14.539314320088444
14.539829338371895
14.54040678732396
14.541008349315314
14.541604401246568
14.542175403524752
14.542711092909048
14.543208625168852
14.543670508218042
14.544102822741223
14.544513899381583
14.544913421897327
14.54531186235035
14.545720131772514
14.546149315612963
14.54661037131674
14.547113656439002
14.547668144397443
14.548280185336246
14.548951678728603
14.549677658545196
14.55044349146181
14.551222349056536
14.551974114206928
14.552647193811872
14.553184349538313
14.55353230095514
14.553652912946063
16.256024436706625
16.256043629895487
16.256100022937375
16.256190274727796
16.256309474272623
16.256451915064815
16.256611859672603
16.256784131721567
16.256964477221434
16.257149696449193
16.257337616348003
16.257526961864023
16.25771718579754
16.25790829527183
16.258100687323722
16.258294998994227
16.258491970849676
16.258692312907446
16.258896564107335
16.259104935223764
16.259317127044834
16.25953212290946
16.259747958723725
16.259961502364913
16.260168282911398
16.26036245032114
16.260536954829597
16.260684023697383
16.26079595382753
16.260866128614502
16.260890052070998
16.351849484672044
16.35186529081592
16.35191190584964
16.351987046958943
16.352087297978155
16.35220858272304
16.35234665844875
16.35249752956066
16.35265773714597
16.352824505273244
16.35299577572834
16.353170157440474
16.353346828251688
16.353525417579444
16.353705881570562
16.353888378959606
16.354073151160403
16.35426040107185
16.35445016720658
16.354642188830265
16.354835759940457
16.35502957661938
16.35522158481224
16.355408857744543
16.355587531438065
16.355752849792342
16.355899364188847
16.356021316209493
16.35611319270385
16.356170381843004
16.3561898057024
16.44757567072127
16.44758893990284
16.447628186520483
16.44769180510569
16.447777358137714
16.447881874032852
16.44800217136432
16.448135146961402
16.448277997477856
16.448428351758338
16.448584328147025
16.44874452552811
16.44890797076272
16.44907404231684
16.449242378666508
16.44941277976522
16.449585107194686
16.449759180945374
16.449934673085302
16.450110997827856
16.450287199327285
16.450461843944954
16.450632924230487
16.450797798386947
16.450953182689968
16.451095228309264
16.45121970299501
16.45132228451298
16.45139894838342
16.451446398937055
16.45146246810031
16.543207803396957
16.543219124403237
16.543252684884038
16.54330732577654
16.543381266112778
16.543472295531487
16.543577991093933
16.543695918501854
16.54382379806774
16.543959614725374
16.544101678614748
16.544248636232474
16.544399445435847
16.544553327517075
16.54470970181588
16.544868110063888
16.54502813664431
16.545189324621717
16.545351089908
16.54551263525793
16.54567286710492
16.5458303222987
16.545983110631287
16.54612889144805
16.546264893669953
16.546387998077947
16.54649488955779
16.546582277410295
16.546647167354063
16.546687149924235
16.54670065866266
16.63874949857116
16.638759291175376
16.638788372703395
16.63883588569362
16.63890049912019
16.638980535608844
16.63907411888217
16.639179315152052
16.639294256309654
16.639417227531276
16.639546722785948
16.63968146419023
16.639820392933636
16.6399626404979
16.640107483128602
16.64025428536564
16.640402438564962
16.640551295131186
16.64070010180645
16.640847934714902
16.640993639699094
16.641135784398788
16.64127262623213
16.641402110056166
16.64152189942364
16.64162945274436
16.641722145770544
16.641797435584557
16.641853052863212
16.64188719821001
16.64189871332309
16.73420349814401
16.734212069620433
16.73423756067555
16.734279322005357
16.734336336745937
16.734407306234893
16.734490751879438
16.73458511527179
16.73468884941732
16.73480048692339
16.73491868759579
16.735042259821075
16.735170160273206
16.735301477757975
16.735435402364317
16.73557118443403
16.735708088671316
16.735845344347613
16.73598209519663
16.736117351955322
16.736249950966798
16.736378524334707
16.736501484219733
16.736617031641195
16.73672319036675
16.736817872823252
16.736898976601047
16.736964506300144
16.73701271070444
16.737042218653645
16.737052154951574
16.826513025603152
16.826520604825895
16.826543170173892
16.826580218802874
16.8266309570375
16.826694359216223
16.82676923912193
16.82685432146402
16.826948309564305
16.827049937803917
16.827158011064334
16.827271425200838
16.827389171316398
16.82751032782106
16.82763404026468
16.827759492382537
16.82788587295699
16.828012339351268
16.828137981140667
16.82826178663299
16.828382615266424
16.82849918037307
16.828610043654496
16.82871362926703
16.82880825617721
16.828892193237557
16.828963734453563
16.829021289717215
16.829063483672925
16.8290892512089
16.829097917455908
16.91259908075176
16.912605841686077
16.91262598857919
16.912659123464223
16.912704613804287
16.91276163351013
16.91282921373465
16.91290629435695
16.912991774438872
16.913084552358832
16.913183557934843
16.913287770801247
16.913396226846643
16.913508015567587
16.913622267591656
16.91373813497304
16.91385476816605
16.913971290284447
16.91408677169866
16.914200207399773
16.914310499589355
16.91441644907982
16.91451675593983
16.91461003553791
16.914694847622
16.91476974149619
16.91483331451283
16.91488427995714
16.914921539056415
16.914944249069837
16.91495187946376
16.992431457202432
16.99243753615709
16.99245566349203
16.992485517495542
16.992526583627566
16.99257818353098
16.992639511652037
16.992709672667186
16.99278771936688
16.992872683364283
16.992963601084856
16.993059529752625
16.99315955467261
16.993262789966032
16.993368371584488
16.993475444572287
16.993583147862303
16.99369059692413
16.993796866874444
16.993900978054093
16.994001886009876
16.994098478708832
16.99418958078752
16.99427396976033
16.9943504013487
16.994417646222907
16.994474535502384
16.994520011887403
16.99455318268783
16.994573369056514
16.994580146074867
17.065982084918137
17.06598759104909
17.066004019301044
17.066031104177657
17.0660684186727
17.06611539507891
17.066171351761437
17.066235520642646
17.066307075917344
17.066385157643193
17.06646889278471
17.066557408935484
17.0666498417541
17.066745337836938
17.06684305162396
17.06694213783477
17.067041742194636
17.06714099049536
17.067238978166902
17.067334761952356
17.06742735516317
17.067515728735764
17.06759881747187
17.067675535517484
17.067744798082863
17.06780555126869
17.06785680761839
17.067897684957654
17.067927445902296
17.067945533951875
17.067951602537367
17.133224988240105
17.133230010836876
17.133245002917647
17.133269740944865
17.1333038636147
17.133346886994204
17.13339822438649
17.133457206745273
17.13352310470027
17.13359514681785
17.13367253675119
17.133754464992037
17.13384011612482
17.133928673030397
17.13401931652853
17.13411122160856
17.134203552573336
17.13429545690923
17.13438605966828
17.134474459591498
17.134559728067227
17.13464091267094
17.13471704440328
17.134787152057584
17.13485028073429
17.13490551612757
17.134952012510194
17.134989022536267
17.13501592704586
17.13503226190029
17.135037739353923
17.194136270801163
17.194140884428027
17.194154660460093
17.194177407016586
17.19420881261695
17.19424845735696
17.194295827887437
17.194350332776942
17.194411319650918
17.19447808948498
17.194549910736164
17.194626029458696
17.19470567623562
17.19478807119153
17.19487242554315
17.19495794057948
17.19504380604648
17.19512919756302
17.195213274523628
17.19529517941416
17.19537403932781
17.19544897106374
17.195519088765998
17.19558351707874
17.195641406938975
17.195691955491313
17.19573442833849
17.195768182685015
17.195792690131903
17.1958075569261
17.19581253993215
17.24869448229339
17.248698750474478
17.248711498416327
17.248732558330122
17.24876165682861
17.248798423313616
17.248842401475578
17.248893061033534
17.248949811302044
17.24901201254379
17.249078987784966
17.249150031611975
17.24922441674255
17.24930139951158
17.24938022273765
17.249460116672317
17.24954029972649
17.249619978460796
17.24969834802389
17.249774593722336
17.24984789427129
17.249917427832337
17.249982379707877
17.250041954330595
17.250095388810042
17.25014196943235
17.250181049577055
17.25021206794308
17.250234566252196
17.250248204776245
17.25025277447392
17.296879947384223
17.296883925294278
17.29689580872266
17.296915448321013
17.296942599981616
17.29697693125119
17.297018030341633
17.2970654152666
17.29711854479653
17.297176827640026
17.297239632497448
17.29730629581507
17.29737612800943
17.297448419212106
17.29752244303217
17.297597458897712
17.297672714450133
17.29774744737489
17.29782088763777
17.297892260619754
17.297960791520232
17.298025711925945
17.298086267374494
17.298141728295345
17.298191401739782
17.298234645235436
17.29827088143638
17.298299612714356
17.298320435150103
17.298333050656144
17.29833727637031
17.338675688144736
17.33867942460037
17.338690588485818
17.338709044588498
17.33873457132969
17.33876686577727
17.338805550873197
17.338850182699307
17.33890025952598
17.33895522939824
17.339014498859903
17.339077439896812
17.33914339585228
17.339211687297134
17.339281616392185
17.33935247020097
17.33942352425342
17.33949404567227
17.339563296663393
17.33963053871792
17.339695037762088
17.339756070996813
17.33981293424259
17.339864951978686
17.339911487628875
17.33995195538474
17.339985832404032
17.34001267071841
17.340032108515967
17.34004387980283
17.340047821827135
17.374066584934177
17.374070123904588
17.374080699005365
17.374098185806996
17.37412237997268
17.374153001278636
17.374189699566937
17.374232060672682
17.374279614088604
17.374331839388756
17.374388173959698
17.37444801932361
17.374510746791895
17.374575703380714
17.374642216567327
17.37470959826934
17.374777149214406
17.37484416296321
17.374909930258678
17.374973743941506
17.375034904569297
17.37509272736723
17.375146549328505
17.375195738505596
17.375239703168663
17.375277902087497
17.375309854904373
17.375335152071848
17.375353464165602
17.37536454977074
17.375368261493108
17.40304008082541
17.40304346259702
17.403053568856155
17.403070283275717
17.40309341451098
17.403122699523095
17.403157808630294
17.40319835048794
17.40324387876154
17.403293897715105
17.403347869213967
17.403405218583693
17.403465340051998
17.403527602665324
17.403591355297483
17.40365593107719
17.40372065230144
17.403784835065892
17.40384779418973
17.403908848596444
17.403967327217316
17.40402257596294
17.404073964591415
17.404120895402077
17.404162811535585
17.40419920610809
17.404229631246274
17.40425370659826
17.404271127230835
17.40428167024846
17.404285199800945
17.42558584495792
17.425589107060762
17.425598856314764
17.425614982285488
17.425637303098366
17.42566556828489
17.425699463211856
17.425738613408306
17.425782590547417
17.425830917451897
17.42588307457903
17.425938505544607
17.425996622402334
17.42605681154163
17.426118438852303
17.426180854444613
17.42624339791819
17.426305403391538
17.426366204800708
17.42642514157377
17.42648156469903
17.426534843673707
17.426584373175128
17.426629581300578
17.426669937238668
17.426704959577613
17.42673422438977
17.42675737273817
17.42677411758384
17.426784249523052
17.426787641099654
17.441695699981683
17.44169887794808
17.441708376151656
17.441724088162726
17.44174583855399
17.441773385437553
17.44180642448893
17.441844592849336
17.441887474653495
17.441934605652456
17.441985479353406
17.44203955231773
17.44209624932609
17.442154969252922
17.44221509032254
17.44227597500974
17.44233697552874
17.442397439110277
17.44245671353019
17.44251415295915
17.442569124120467
17.442621013203535
17.442669232386717
17.442713227759445
17.442752486565027
17.442786544953048
17.442814995430457
17.44283749370358
17.442853764933506
17.44286360889509
17.442866903834435
17.451363944525728
17.451367072532825
17.451376421647048
17.451391887763954
17.451413299203978
17.451440419075894
17.451472949072627
17.451510533134176
17.451552762718528
17.45159918120735
17.451649289848433
17.451702552923425
17.451758402844842
17.451816246013088
17.451875468119706
17.451935439145572
17.45199551896849
17.452055062774797
17.452113426711367
17.45216997382763
17.452224080276167
17.452275142198104
17.452322582154352
17.452365856859796
17.452404464176894
17.452437950547765
17.452465918082748
17.45248803102372
17.452504021629295
17.452513695006274
17.452516932710086
17.454587068164138
17.454590179603954
17.45459947927489
17.454614863835012
17.454636162834486
17.45466314102312
17.45469550207241
17.454732892161335
17.454774905163923
17.454821086984794
17.45487094143738
17.45492393536881
17.45497950373471
17.455037055449534
17.455095978704477
17.45515564599629
17.45521541977242
17.455274657885028
17.4553327192819
17.455388969976973
17.455442789263643
17.455493576589507
17.45554075795681
17.455583793594315
17.455622184869185
17.455655481614574
17.455683289100023
17.455705274371912
17.45572117201855
17.455730788895636
17.45573400764358
