# vtk DataFile Version 2.0
Unstructured Grid Example
ASCII
DATASET UNSTRUCTURED_GRID

POINTS 961 float
0.400000004 0.01999999956 0
0.3866666556 0.01999999956 0
0.3733333348 0.01999999956 0
0.3600000144 0.01999999956 0
0.346666664 0.01999999956 0
0.3333333432 0.01999999956 0
0.3199999928 0.01999999956 0
0.3066666724 0.01999999956 0
0.293333322 0.01999999956 0
0.2800000012 0.01999999956 0
0.2666666804 0.01999999956 0
0.25333333 0.01999999956 0
0.2399999948 0.01999999956 0
0.226666674 0.01999999956 0
0.2133333384 0.01999999956 0
0.2000000028 0.01999999956 0
0.1866666676 0.01999999956 0
0.173333332 0.01999999956 0
0.1599999964 0.01999999956 0
0.1466666608 0.01999999956 0
0.1333333404 0.01999999956 0
0.1199999972 0.01999999956 0
0.1066666692 0.01999999956 0
0.0933333336 0.01999999956 0
0.0799999984 0.01999999956 0
0.06666667 0.01999999956 0
0.0533333348 0.01999999956 0
0.03999999912 0.01999999956 0
0.02666666732 0.01999999956 0
0.01333333364 0.01999999956 0
0.0 0.01999999956 0
0.400000004 0.00666666684 0
0.3866666556 0.00666666684 0
0.3733333348 0.00666666684 0
0.3600000144 0.00666666684 0
0.346666664 0.00666666684 0
0.3333333432 0.00666666684 0
0.3199999928 0.00666666684 0
0.3066666724 0.00666666684 0
0.293333322 0.00666666684 0
0.2800000012 0.00666666684 0
0.2666666804 0.00666666684 0
0.25333333 0.00666666684 0
0.2399999948 0.00666666684 0
0.226666674 0.00666666684 0
0.2133333384 0.00666666684 0
0.2000000028 0.00666666684 0
0.1866666676 0.00666666684 0
0.173333332 0.00666666684 0
0.1599999964 0.00666666684 0
0.1466666608 0.00666666684 0
0.1333333404 0.00666666684 0
0.1199999972 0.00666666684 0
0.1066666692 0.00666666684 0
0.0933333336 0.00666666684 0
0.0799999984 0.00666666684 0
0.06666667 0.00666666684 0
0.0533333348 0.00666666684 0
0.03999999912 0.00666666684 0
0.02666666732 0.00666666684 0
0.01333333364 0.00666666684 0
0.0 0.00666666684 0
0.400000004 -0.00666666684 0
0.3866666556 -0.00666666684 0
0.3733333348 -0.00666666684 0
0.3600000144 -0.00666666684 0
0.346666664 -0.00666666684 0
0.3333333432 -0.00666666684 0
0.3199999928 -0.00666666684 0
0.3066666724 -0.00666666684 0
0.293333322 -0.00666666684 0
0.2800000012 -0.00666666684 0
0.2666666804 -0.00666666684 0
0.25333333 -0.00666666684 0
0.2399999948 -0.00666666684 0
0.226666674 -0.00666666684 0
0.2133333384 -0.00666666684 0
0.2000000028 -0.00666666684 0
0.1866666676 -0.00666666684 0
0.173333332 -0.00666666684 0
0.1599999964 -0.00666666684 0
0.1466666608 -0.00666666684 0
0.1333333404 -0.00666666684 0
0.1199999972 -0.00666666684 0
0.1066666692 -0.00666666684 0
0.0933333336 -0.00666666684 0
0.0799999984 -0.00666666684 0
0.06666667 -0.00666666684 0
0.0533333348 -0.00666666684 0
0.03999999912 -0.00666666684 0
0.02666666732 -0.00666666684 0
0.01333333364 -0.00666666684 0
0.0 -0.00666666684 0
0.400000004 -0.01999999956 0
0.3866666556 -0.01999999956 0
0.3733333348 -0.01999999956 0
0.3600000144 -0.01999999956 0
0.346666664 -0.01999999956 0
0.3333333432 -0.01999999956 0
0.3199999928 -0.01999999956 0
0.3066666724 -0.01999999956 0
0.293333322 -0.01999999956 0
0.2800000012 -0.01999999956 0
0.2666666804 -0.01999999956 0
0.25333333 -0.01999999956 0
0.2399999948 -0.01999999956 0
0.226666674 -0.01999999956 0
0.2133333384 -0.01999999956 0
0.2000000028 -0.01999999956 0
0.1866666676 -0.01999999956 0
0.173333332 -0.01999999956 0
0.1599999964 -0.01999999956 0
0.1466666608 -0.01999999956 0
0.1333333404 -0.01999999956 0
0.1199999972 -0.01999999956 0
0.1066666692 -0.01999999956 0
0.0933333336 -0.01999999956 0
0.0799999984 -0.01999999956 0
0.06666667 -0.01999999956 0
0.0533333348 -0.01999999956 0
0.03999999912 -0.01999999956 0
0.02666666732 -0.01999999956 0
0.01333333364 -0.01999999956 0
0.0 -0.01999999956 0
0.400000004 -0.03333333508 0
0.3866666556 -0.03333333508 0
0.3733333348 -0.03333333508 0
0.3600000144 -0.03333333508 0
0.346666664 -0.03333333508 0
0.3333333432 -0.03333333508 0
0.3199999928 -0.03333333508 0
0.3066666724 -0.03333333508 0
0.293333322 -0.03333333508 0
0.2800000012 -0.03333333508 0
0.2666666804 -0.03333333508 0
0.25333333 -0.03333333508 0
0.2399999948 -0.03333333508 0
0.226666674 -0.03333333508 0
0.2133333384 -0.03333333508 0
0.2000000028 -0.03333333508 0
0.1866666676 -0.03333333508 0
0.173333332 -0.03333333508 0
0.1599999964 -0.03333333508 0
0.1466666608 -0.03333333508 0
0.1333333404 -0.03333333508 0
0.1199999972 -0.03333333508 0
0.1066666692 -0.03333333508 0
0.0933333336 -0.03333333508 0
0.0799999984 -0.03333333508 0
0.06666667 -0.03333333508 0
0.0533333348 -0.03333333508 0
0.03999999912 -0.03333333508 0
0.02666666732 -0.03333333508 0
0.01333333364 -0.03333333508 0
0.0 -0.03333333508 0
0.400000004 -0.0466666668 0
0.3866666556 -0.0466666668 0
0.3733333348 -0.0466666668 0
0.3600000144 -0.0466666668 0
0.346666664 -0.0466666668 0
0.3333333432 -0.0466666668 0
0.3199999928 -0.0466666668 0
0.3066666724 -0.0466666668 0
0.293333322 -0.0466666668 0
0.2800000012 -0.0466666668 0
0.2666666804 -0.0466666668 0
0.25333333 -0.0466666668 0
0.2399999948 -0.0466666668 0
0.226666674 -0.0466666668 0
0.2133333384 -0.0466666668 0
0.2000000028 -0.0466666668 0
0.1866666676 -0.0466666668 0
0.173333332 -0.0466666668 0
0.1599999964 -0.0466666668 0
0.1466666608 -0.0466666668 0
0.1333333404 -0.0466666668 0
0.1199999972 -0.0466666668 0
0.1066666692 -0.0466666668 0
0.0933333336 -0.0466666668 0
0.0799999984 -0.0466666668 0
0.06666667 -0.0466666668 0
0.0533333348 -0.0466666668 0
0.03999999912 -0.0466666668 0
0.02666666732 -0.0466666668 0
0.01333333364 -0.0466666668 0
0.0 -0.0466666668 0
0.400000004 -0.0599999988 0
0.3866666556 -0.0599999988 0
0.3733333348 -0.0599999988 0
0.3600000144 -0.0599999988 0
0.346666664 -0.0599999988 0
0.3333333432 -0.0599999988 0
0.3199999928 -0.0599999988 0
0.3066666724 -0.0599999988 0
0.293333322 -0.0599999988 0
0.2800000012 -0.0599999988 0
0.2666666804 -0.0599999988 0
0.25333333 -0.0599999988 0
0.2399999948 -0.0599999988 0
0.226666674 -0.0599999988 0
0.2133333384 -0.0599999988 0
0.2000000028 -0.0599999988 0
0.1866666676 -0.0599999988 0
0.173333332 -0.0599999988 0
0.1599999964 -0.0599999988 0
0.1466666608 -0.0599999988 0
0.1333333404 -0.0599999988 0
0.1199999972 -0.0599999988 0
0.1066666692 -0.0599999988 0
0.0933333336 -0.0599999988 0
0.0799999984 -0.0599999988 0
0.06666667 -0.0599999988 0
0.0533333348 -0.0599999988 0
0.03999999912 -0.0599999988 0
0.02666666732 -0.0599999988 0
0.01333333364 -0.0599999988 0
0.0 -0.0599999988 0
0.400000004 -0.0733333304 0
0.3866666556 -0.0733333304 0
0.3733333348 -0.0733333304 0
0.3600000144 -0.0733333304 0
0.346666664 -0.0733333304 0
0.3333333432 -0.0733333304 0
0.3199999928 -0.0733333304 0
0.3066666724 -0.0733333304 0
0.293333322 -0.0733333304 0
0.2800000012 -0.0733333304 0
0.2666666804 -0.0733333304 0
0.25333333 -0.0733333304 0
0.2399999948 -0.0733333304 0
0.226666674 -0.0733333304 0
0.2133333384 -0.0733333304 0
0.2000000028 -0.0733333304 0
0.1866666676 -0.0733333304 0
0.173333332 -0.0733333304 0
0.1599999964 -0.0733333304 0
0.1466666608 -0.0733333304 0
0.1333333404 -0.0733333304 0
0.1199999972 -0.0733333304 0
0.1066666692 -0.0733333304 0
0.0933333336 -0.0733333304 0
0.0799999984 -0.0733333304 0
0.06666667 -0.0733333304 0
0.0533333348 -0.0733333304 0
0.03999999912 -0.0733333304 0
0.02666666732 -0.0733333304 0
0.01333333364 -0.0733333304 0
0.0 -0.0733333304 0
0.400000004 -0.086666666 0
0.3866666556 -0.086666666 0
0.3733333348 -0.086666666 0
0.3600000144 -0.086666666 0
0.346666664 -0.086666666 0
0.3333333432 -0.086666666 0
0.3199999928 -0.086666666 0
0.3066666724 -0.086666666 0
0.293333322 -0.086666666 0
0.2800000012 -0.086666666 0
0.2666666804 -0.086666666 0
0.25333333 -0.086666666 0
0.2399999948 -0.086666666 0
0.226666674 -0.086666666 0
0.2133333384 -0.086666666 0
0.2000000028 -0.086666666 0
0.1866666676 -0.086666666 0
0.173333332 -0.086666666 0
0.1599999964 -0.086666666 0
0.1466666608 -0.086666666 0
0.1333333404 -0.086666666 0
0.1199999972 -0.086666666 0
0.1066666692 -0.086666666 0
0.0933333336 -0.086666666 0
0.0799999984 -0.086666666 0
0.06666667 -0.086666666 0
0.0533333348 -0.086666666 0
0.03999999912 -0.086666666 0
0.02666666732 -0.086666666 0
0.01333333364 -0.086666666 0
0.0 -0.086666666 0
0.400000004 -0.1000000016 0
0.3866666556 -0.1000000016 0
0.3733333348 -0.1000000016 0
0.3600000144 -0.1000000016 0
0.346666664 -0.1000000016 0
0.3333333432 -0.1000000016 0
0.3199999928 -0.1000000016 0
0.3066666724 -0.1000000016 0
0.293333322 -0.1000000016 0
0.2800000012 -0.1000000016 0
0.2666666804 -0.1000000016 0
0.25333333 -0.1000000016 0
0.2399999948 -0.1000000016 0
0.226666674 -0.1000000016 0
0.2133333384 -0.1000000016 0
0.2000000028 -0.1000000016 0
0.1866666676 -0.1000000016 0
0.173333332 -0.1000000016 0
0.1599999964 -0.1000000016 0
0.1466666608 -0.1000000016 0
0.1333333404 -0.1000000016 0
0.1199999972 -0.1000000016 0
0.1066666692 -0.1000000016 0
0.0933333336 -0.1000000016 0
0.0799999984 -0.1000000016 0
0.06666667 -0.1000000016 0
0.0533333348 -0.1000000016 0
0.03999999912 -0.1000000016 0
0.02666666732 -0.1000000016 0
0.01333333364 -0.1000000016 0
0.0 -0.1000000016 0
0.400000004 -0.1133333372 0
0.3866666556 -0.1133333372 0
0.3733333348 -0.1133333372 0
0.3600000144 -0.1133333372 0
0.346666664 -0.1133333372 0
0.3333333432 -0.1133333372 0
0.3199999928 -0.1133333372 0
0.3066666724 -0.1133333372 0
0.293333322 -0.1133333372 0
0.2800000012 -0.1133333372 0
0.2666666804 -0.1133333372 0
0.25333333 -0.1133333372 0
0.2399999948 -0.1133333372 0
0.226666674 -0.1133333372 0
0.2133333384 -0.1133333372 0
0.2000000028 -0.1133333372 0
0.1866666676 -0.1133333372 0
0.173333332 -0.1133333372 0
0.1599999964 -0.1133333372 0
0.1466666608 -0.1133333372 0
0.1333333404 -0.1133333372 0
0.1199999972 -0.1133333372 0
0.1066666692 -0.1133333372 0
0.0933333336 -0.1133333372 0
0.0799999984 -0.1133333372 0
0.06666667 -0.1133333372 0
0.0533333348 -0.1133333372 0
0.03999999912 -0.1133333372 0
0.02666666732 -0.1133333372 0
0.01333333364 -0.1133333372 0
0.0 -0.1133333372 0
0.400000004 -0.1266666652 0
0.3866666556 -0.1266666652 0
0.3733333348 -0.1266666652 0
[...]
POINT_DATA 961
SCALARS Temp float 1
LOOKUP_TABLE default
0.6924891447390601
0.7201473686190327
0.7399958889676309
0.7544277030875222
0.7650020046991539
0.7727879677822589
0.7785467776296799
0.7828263062641132
0.7860253172170504
0.7884359893201891
0.7902749481738827
0.7917047834476855
0.7928497479667469
0.7938079757501327
0.7946605983625104
0.7954789767579384
0.7963313236021871
0.7972887908981567
0.7984318653725254
0.7998576849207107
0.8016889489565686
0.8040856493336688
0.8072600237763535
0.8114978021634398
0.8171867300987338
0.8248570489464806
0.8352391680594463
0.8493480380552856
0.8686116681762359
0.8951025134965175
0.9321080093846095
0.7309092040859956
0.7580300446486983
0.7776653760787002
0.792018190826691
0.8025561791278294
0.8103272331898358
0.8160815485075298
0.8203617666992903
0.8235639182451676
0.8259787599117394
0.8278221872034963
0.8292564463680112
0.8304056687598292
0.83136798584599
0.8322245927304658
0.8330469528098295
0.833903395380514
0.8348651884604429
0.8360129166849682
0.8374437720746254
0.8392804237015924
0.8416826707515398
0.8448622782311893
0.8491039860264789
0.8547936228419974
0.8624577783026617
0.872819844767265
0.8868802681808637
0.9060368585246543
0.9322576126150266
0.9683930181744456
2.5297006349310545
2.5337298369719994
2.544959330367977
2.5553162427193805
2.563880502934434
2.570694389292126
2.5760293814200868
2.5801785531499117
2.5834018639460385
2.585915072085264
2.587892735753819
2.5894752053904075
2.5907762018361087
2.5918899040847787
2.5928972569757622
2.5938716112081606
2.5948839686922027
2.5960081268443354
2.5973259997908817
2.598933447158352
2.600946935930872
2.603511255956442
2.6068084222000936
2.6110674138344763
2.6165732295753945
2.6236706164278374
2.632749121562626
2.644169701762352
2.6579879710190397
2.6729668446375894
2.6783444217296744
4.306074647607373
4.308273414628585
4.313670006267861
4.320413184358631
4.326806620970293
4.332349442274057
4.336960263770196
4.340716670346332
4.3437469749588935
4.346186407505034
4.348160411347969
4.349779652252484
4.351140230015184
4.352326128647936
4.353412536423917
4.354469486734197
4.355565627727043
4.356772065250796
4.358166309954085
4.359836339043091
4.361884686187377
4.364432274622411
4.367621154145208
4.371614433372155
4.376589333916065
4.382714582315933
4.390091814046366
4.3986107653250945
4.4076008553769706
4.414797746996238
4.4177300021196375
6.077202307797942
6.078372414097703
6.081534703690572
6.085816286611843
6.090375724053963
6.0946596531771196
6.098440318109269
6.10166394408004
6.104361531356061
6.106600518272476
6.1084603983359855
6.110021121670218
6.11135835952584
6.112542414859032
6.113639019383805
6.114711119208151
6.11582117020249
6.11703364756319
6.118417578609309
6.120048875198745
6.122012103743809
6.124401049832068
6.127316800029822
6.130861108252127
6.135120647769768
6.140134180557365
6.145827930132238
6.151896204589686
6.157599238908521
6.161813135588361
6.1633726450161035
7.845164353932288
7.845876974350697
7.8478487603222655
7.850671754984815
7.853873800482692
7.85707825422174
7.860055123695939
7.862700635780417
7.864990812962135
7.866946435911983
7.868610849008579
7.8700370649001234
7.8712809205628975
7.872397962300877
7.873442526427771
7.8744680976554005
7.875528368387772
7.876678582440984
7.8779768426454115
7.879485025445989
7.881268807206092
7.883396048635637
7.885932254968377
7.888931179799608
7.892417382146347
7.896356359287402
7.900607688514401
7.904862886362315
7.908618164052444
7.911242613992919
7.912191349944584
9.610995438039375
9.611449230509844
9.612728563843948
9.614619699509511
9.616855450902001
9.619191783986665
9.621451720565084
9.623531526771187
9.625386409296123
9.627011267445443
9.62842505045308
9.629659925392685
9.630754553270439
9.631750347333135
9.632689700666798
9.63361545724487
9.634571098423212
9.635601217216239
9.636751923528848
9.638070790125981
9.639605840929102
9.641402903941387
9.643500321898525
9.645919773989121
9.64865163178564
9.65163388555957
9.654726384343531
9.657691594669759
9.660202863932927
9.66190293168662
9.662506159538873
11.375151688184623
11.375443894748935
11.376276796359425
11.377533744977372
11.379060670682634
11.380705323331604
11.38234486899768
11.383896660862002
11.38531596433669
11.38658751799302
11.387716300667869
11.38871993712375
11.389623334040289
11.390455298654372
11.391246630725133
11.392029219216653
11.392835743172183
11.393699614966682
11.394654846752946
11.395735494650502
11.396974266960306
11.39839979082493
11.400031888049359
11.401874269664678
11.403904261217896
11.40606033399903
11.408230787500353
11.41025059868747
11.411915788890683
11.41302018894708
11.413407804350458
13.137859671661069
13.138039925835749
13.138557478142996
13.13934928445796
13.140329201540071
13.141407704840404
13.142507670939025
13.143572661796858
13.14456824202324
13.145478871968976
13.146303207853471
13.147049551080634
13.14773226243247
13.148369282951032
13.148980581333499
13.14958728007715
13.150211206550066
13.150874613889656
13.15159983741394
13.152408634588156
13.153320922542626
13.154352598050053
13.155512095053856
13.1567955071987
13.158180423306565
13.159619557096294
13.161036564297813
13.162327722112245
13.163372976988814
13.164056962242233
13.164295307451678
14.899229809052182
14.899323948435361
14.899595737738752
14.90001599601953
14.90054398613719
14.901136007750601
14.901752789915975
14.902363971377444
14.902949524043084
14.903498925841193
14.904009257351994
14.904483083714117
14.90492663115863
14.905348431442095
14.905758402814076
14.906167271253704
14.906586212536233
14.907026581181697
14.907499600595774
14.9080158795413
14.908584608496428
14.909212289839633
14.909900865169114
14.910645240620205
14.911430415609768
14.912228892367427
14.912999555242518
14.913689528433215
14.91424015142097
14.91459682037586
14.914720453139344
16.65931504952004
16.659334751448004
16.659392640913847
16.659485292857703
16.65960767268548
16.659753929874036
16.659918181558446
16.66009511922931
16.660280379070322
16.66047067715327
16.66066378121166
16.66085837884105
16.661053903188243
16.661250355186496
16.661448135136638
16.66164788914741
16.661850369347146
16.66205629655731
16.66226621635192
16.662480338146434
16.66269834893749
16.662919200765536
16.66314087508682
16.66336015677265
16.663572459157145
16.66377178276953
16.66395089923018
16.664101839865825
16.66421670802572
16.664288721184953
16.664313270746348
16.757517349929298
16.757533581198267
16.75758145131426
16.757658619748902
16.757761583798892
16.757886163679014
16.75802800825316
16.75818301903807
16.758347646965166
16.758519042350134
16.758695090550816
16.758874360194792
16.759056002571867
16.759239631457987
16.75942519524214
16.759612849774626
16.759802835561143
16.75999535363688
16.760190436647857
16.760387810719262
16.76058674588405
16.760785899722165
16.76098316142442
16.761175526237572
16.761359029435805
16.761528792575437
16.76167922809918
16.76180443158985
16.761898750643507
16.76195745722674
16.761977395972895
16.855618270346415
16.855631902486248
16.8556722236926
16.855737587561666
16.85582549427215
16.855932895985163
16.856056529139224
16.856193209726815
16.856340060407973
16.856494646202062
16.8566550332798
16.856819779838958
16.85698788229864
16.857158697106556
16.857331846943694
16.857507119818607
16.8576843668202
16.857863396414192
16.858043865551192
16.858225167083727
16.858406314852168
16.858585833353402
16.85876165940337
16.858931080171008
16.85909072546586
16.85923664652161
16.859364502239085
16.859469859942504
16.859548592773756
16.859597321470396
16.859613823064354
16.953622737079407
16.953634373850267
16.953668871255676
16.953725040334973
16.953801054046256
16.953894644572582
16.95400332554953
16.954124598306024
16.95425612200225
16.954395826412238
16.954541974075532
16.95469317178371
16.954848345027703
16.95500668895965
16.955167601457546
16.95533060566647
16.955495268361826
16.955661113975243
16.95582753671085
16.955993712486332
16.95615851378207
16.956320434638958
16.956477531824216
16.956627400935183
16.956767196976713
16.956893718745032
16.957003564900432
16.9570933597858
16.95716003221462
16.95720111105344
16.957214989838064
17.051534453452543
17.05154452542012
17.05157443728847
17.05162330913082
17.051689774927723
17.051772112958133
17.051868396936825
17.051976640946904
17.05209492573821
17.052221488551325
17.05235478006866
17.052493484311523
17.052636509406543
17.052782958170834
17.052932081531594
17.053083220732574
17.05323574441605
17.053388981306533
17.053542151927886
17.053694302118924
17.053844241969564
17.05399049679186
17.05413127437536
17.054264462665817
17.054387661858335
17.05449826250885
17.054593571111237
17.054670978197805
17.054728155412267
17.054763256742845
17.054775093958053
17.149356226387056
17.14936504884357
17.149391286877073
17.14943427381992
17.14949296550502
17.149566028175087
17.14965194291397
17.14974910827978
17.149855933851267
17.149970910155428
17.15009265751472
17.150219948025097
17.15035170532513
17.150486988123617
17.150624958667194
17.150764840773085
17.150905872890096
17.151047257155135
17.15118810813287
17.151327404266215
17.151463945536406
17.151596322962273
17.151722902579316
17.15184183453988
17.15195108790775
17.15204851826801
17.15213196668121
17.152199384599246
17.152248974483445
17.15227932907895
17.15228955022106
17.24395548375527
17.24396329140116
17.24398653730071
17.244024704812034
17.244076978382058
17.244142303872593
17.244219461800945
17.244307140631232
17.24440400619741
17.24450875550099
17.24462015720418
17.24473707268011
17.24485846046614
17.244983368214843
17.24511091211237
17.245240247291065
17.245370533963705
17.24550090014444
17.245630404470035
17.245758001981322
17.245882515925025
17.24600262017958
17.246116833669717
17.246223534885626
17.246320995108807
17.24640743492132
17.246481101398924
17.24654036114474
17.246583801650996
17.246610329192606
17.24661925083436
17.332176881699223
17.332183852700275
17.33220462595769
17.332238792245164
17.332285701040423
17.332344502582743
17.33241419996739
17.332493701944493
17.332581874688042
17.332677582977418
17.33277972319461
17.332887242228914
17.33299914415162
17.33311448759679
17.333232373064984
17.33335192281939
17.333472257387378
17.333592469277423
17.33371159704296
17.33382860218075
17.333942351381815
17.334051607812654
17.334155031856447
17.33425119764319
17.334338622921575
17.334415815426944
17.334481332886057
17.334533852637517
17.33457224547241
17.334595645448168
17.334603507482388
17.413989466088715
17.41399574001447
17.414014449061288
17.41404526209012
17.41408764940407
17.414140912502752
17.414204221652625
17.414276654281586
17.414357233865914
17.41444496145505
17.41453884238659
17.414637902744353
17.41474119690172
17.414847808371945
17.414956842743013
17.415067414717207
17.41517863263344
17.415289580785156
17.41539930221274
17.415506784022927
17.415610947219022
17.41571064394438
17.415804661920298
17.41589174114877
17.415970599944036
17.416039972659348
17.41609865638032
17.416145563378937
17.41617977550483
17.41620059467642
17.416207583986875
17.489364472483746
17.48937016107212
17.489387133957262
17.48941511755457
17.48945367178062
17.48950221140256
17.489560033518785
17.48962634576627
17.489700295813975
17.489780995594867
17.489867542955636
17.489959035797465
17.49005457977978
17.490153291364933
17.49025429474473
17.49035671418582
17.4904596646331
17.4905622406035
17.49066350560366
17.490762483702476
17.4908581547692
17.490949455658512
17.49103528669191
17.49111452761663
17.491186059941302
17.491248797578272
17.49130172334466
17.491343928821305
17.49137465488948
17.491393328757734
17.491399593757006
17.558275283073325
17.558280477698066
17.55829598346455
17.55832156973657
17.558356863678263
17.55840136579186
17.558454470320168
17.55851548620967
17.558583659750376
17.55865819334775
17.558738263184868
17.55882303134651
17.558911653339475
17.55900328250456
17.559097069751143
17.559192159794527
17.559287686290606
17.559382765661596
17.559476491447263
17.55956793043957
17.559656121719375
17.55974008038959
17.55981880508224
17.559891292781415
17.55995655787651
17.560013657130245
17.560061718426706
17.560099971371272
17.560127777885054
17.560144659744893
17.560150320513223
17.620697411151063
17.62070218809091
17.6207164519175
17.620740004389866
17.62077252365399
17.62081357572186
17.620862629867716
17.620919074415145
17.620982234371613
17.62105138613624
17.621125772070883
17.621204610950024
17.621287105153215
17.621372445909273
17.62145981498929
17.6215483837648
17.621637311666813
17.621725743648806
17.62181280814915
17.621897616500554
17.621979264590987
17.62205683819764
17.622129420907306
17.622196107700145
17.622256021216003
17.6223083322445
17.622352282598587
17.622387208891876
17.62241256595078
17.622427947606464
17.622433103091403
17.67660887690382
17.6766133011194
17.67662651521072
17.676648345584194
17.67667850935415
17.676716622964946
17.676762214022776
17.676814733371447
17.67687356906788
17.676938058077802
17.677007498475906
17.677081158546173
17.677158283607127
17.67723810174378
17.677319826851992
17.677402659717195
17.67748578887657
17.677568390722886
17.677649630068686
17.677728661868485
17.67780463466053
17.677876696865898
17.677944004768293
17.678005734905845
17.678061098037613
17.678109356136122
17.678149840821547
17.67818197210101
17.678205276564416
17.67821940333819
17.6782241365525
17.72598951959639
17.725993647488096
17.72600597905116
17.72602635955231
17.726054536049606
17.72609016399238
17.726132816503743
17.72618199378924
17.726237134437323
17.726297624891483
17.726362809846872
17.726432000284206
17.72650447994182
17.726579511315386
17.726656339622945
17.72673419531281
17.72681229663771
17.726889851647407
17.72696606059779
17.727040119279852
17.727111223644787
17.727178576650136
17.727241396107527
17.727298926002366
17.72735044860068
17.72739529873262
17.727432878880645
17.7274626741952
17.72748426688764
17.7274973486959
17.72750173054119
17.768821942787767
17.768825824236895
17.76883742140112
17.768856594000834
17.76888311212772
17.768916661409477
17.768956850465635
17.76900321840009
17.769055244149182
17.76911235432032
17.769173932227968
17.769239325098226
17.769307850226056
17.76937880110576
17.76945145201282
17.769525061509402
17.769598876219167
17.769672134149992
17.769744068390473
17.76981391153505
17.769880901076284
17.769944286530702
17.77000333706433
17.770057351890305
17.770105670897387
17.770147686853473
17.770182857982658
17.77021072023209
17.77023089888996
17.770243118529763
17.770247210649114
17.805090654308913
17.805094334226194
17.805105330547583
17.80512351401615
17.805148672347055
17.8051805143757
17.805218676208064
17.805262727342164
17.805312178598992
17.805366488770897
17.805425072641533
17.80548730755638
17.805552539313286
17.805620088341254
17.805689254687884
17.80575932220972
17.805829563174942
17.805899242507007
17.80596762236327
17.80603396729299
17.806097550112646
17.80615765914734
17.806213605607514
17.806264733221838
17.806310427711814
17.80635012741716
17.806383334003286
17.806409622710415
17.806428651953844
17.80644017144962
17.806444028406176
17.834782788068875
17.834786307588484
17.834796825532273
17.83481422092376
17.83483829475454
17.834868773418652
17.834905313939625
17.834947509121918
17.834994894466668
17.83504695396489
17.835103127372246
17.835162816305097
17.835225389915323
17.835290191071714
17.835356541607517
17.83542374697166
17.835491101390208
17.83555789273411
17.83562340768932
17.835686937393234
17.835747783602926
17.835805265959436
17.835858729127896
17.83590755181944
17.835951155387377
17.83598901327756
17.83602066036582
17.836045701745586
17.83606382087832
17.836074786420877
17.836078457389114
17.857887758972453
17.85789115640179
17.85790131011958
17.857918105170267
17.8579413522209
17.857970790506627
17.858006092420876
17.858046867997977
17.85809267112139
17.85814300472019
17.85819732751422
17.85825505976771
17.85831558879866
17.858378275142123
17.85844245795884
17.85850745998737
17.85857259307128
17.85863716343703
17.858700477248572
17.8587618465459
17.858820595583314
17.858876068071638
17.858927634117297
17.858974698780372
17.859016710027362
17.85905316733598
17.859083630059413
17.859107725185297
17.85912515447219
17.85913570037384
17.859139230490474
17.874397188488807
17.87440050008645
17.87441039769746
17.874426770457568
17.874449435619788
17.874478141183324
17.87451257006884
17.87455234416618
17.87459703007788
17.874646143924025
17.874699157734334
17.87475550497099
17.874814585921516
17.874875773839083
17.8749384204457
17.875001861070125
17.875065420401473
17.875128418021834
17.875190174197176
17.8752500159966
17.875307283723146
17.87536133812079
17.875411567162345
17.87545739428264
17.87549828589276
17.87553375941581
17.875563391002594
17.87558682261009
17.875603768470167
17.875614020421636
17.875617451895582
17.884305235055862
17.884308495690462
17.88431824121789
17.884334363149055
17.884356682564928
17.88438495256766
17.884418862222226
17.884458040359014
17.884502061054476
17.884550448213727
17.884602681760775
17.88465820302822
17.884716420080803
17.884776713838303
17.884838443627586
17.884900952420928
17.884963572711932
17.885025632186323
17.88508645964011
17.885145391193724
17.88520177676736
17.885254987259664
17.885304421242203
17.88534951300052
17.885389739793396
17.8854246295608
17.88545376826829
17.885476806597765
17.885493466037016
17.885503543876315
17.88550691693046
17.887608301929845
17.887611545664793
17.887621240757355
17.887637279497298
17.887659484221576
17.88768760970818
17.88772134704226
17.88776032733978
17.8878041271428
17.88785227293035
17.887904247242922
17.88795949402845
17.888017423943182
17.888077420467987
17.88813884547546
17.88820104449993
17.888263352651926
17.88832510033274
17.888385619192476
17.888444248373748
17.88850034100009
17.88855327134401
17.88860244148996
17.888647289311752
17.888687295648182
17.888721991904013
17.88875096727344
17.888773875304935
17.88879043986791
17.888800460040656
17.888803813747295
