# vtk DataFile Version 2.0
Unstructured Grid Example
ASCII
DATASET UNSTRUCTURED_GRID

POINTS 961 float
0.400000004 0.01999999956 0
0.3866666556 0.01999999956 0
0.3733333348 0.01999999956 0
0.3600000144 0.01999999956 0
0.346666664 0.01999999956 0
0.3333333432 0.01999999956 0
0.3199999928 0.01999999956 0
0.3066666724 0.01999999956 0
0.293333322 0.01999999956 0
0.2800000012 0.01999999956 0
0.2666666804 0.01999999956 0
0.25333333 0.01999999956 0
0.2399999948 0.01999999956 0
0.226666674 0.01999999956 0
0.2133333384 0.01999999956 0
0.2000000028 0.01999999956 0
0.1866666676 0.01999999956 0
0.173333332 0.01999999956 0
0.1599999964 0.01999999956 0
0.1466666608 0.01999999956 0
0.1333333404 0.01999999956 0
0.1199999972 0.01999999956 0
0.1066666692 0.01999999956 0
0.0933333336 0.01999999956 0
0.0799999984 0.01999999956 0
0.06666667 0.01999999956 0
0.0533333348 0.01999999956 0
0.03999999912 0.01999999956 0
0.02666666732 0.01999999956 0
0.01333333364 0.01999999956 0
0.0 0.01999999956 0
0.400000004 0.00666666684 0
0.3866666556 0.00666666684 0
0.3733333348 0.00666666684 0
0.3600000144 0.00666666684 0
0.346666664 0.00666666684 0
0.3333333432 0.00666666684 0
0.3199999928 0.00666666684 0
0.3066666724 0.00666666684 0
0.293333322 0.00666666684 0
0.2800000012 0.00666666684 0
0.2666666804 0.00666666684 0
0.25333333 0.00666666684 0
0.2399999948 0.00666666684 0
0.226666674 0.00666666684 0
0.2133333384 0.00666666684 0
0.2000000028 0.00666666684 0
0.1866666676 0.00666666684 0
0.173333332 0.00666666684 0
0.1599999964 0.00666666684 0
0.1466666608 0.00666666684 0
0.1333333404 0.00666666684 0
0.1199999972 0.00666666684 0
0.1066666692 0.00666666684 0
0.0933333336 0.00666666684 0
0.0799999984 0.00666666684 0
0.06666667 0.00666666684 0
0.0533333348 0.00666666684 0
0.03999999912 0.00666666684 0
0.02666666732 0.00666666684 0
0.01333333364 0.00666666684 0
0.0 0.00666666684 0
0.400000004 -0.00666666684 0
0.3866666556 -0.00666666684 0
0.3733333348 -0.00666666684 0
0.3600000144 -0.00666666684 0
0.346666664 -0.00666666684 0
0.3333333432 -0.00666666684 0
0.3199999928 -0.00666666684 0
0.3066666724 -0.00666666684 0
0.293333322 -0.00666666684 0
0.2800000012 -0.00666666684 0
0.2666666804 -0.00666666684 0
0.25333333 -0.00666666684 0
0.2399999948 -0.00666666684 0
0.226666674 -0.00666666684 0
0.2133333384 -0.00666666684 0
0.2000000028 -0.00666666684 0
0.1866666676 -0.00666666684 0
0.173333332 -0.00666666684 0
0.1599999964 -0.00666666684 0
0.1466666608 -0.00666666684 0
0.1333333404 -0.00666666684 0
0.1199999972 -0.00666666684 0
0.1066666692 -0.00666666684 0
0.0933333336 -0.00666666684 0
0.0799999984 -0.00666666684 0
0.06666667 -0.00666666684 0
0.0533333348 -0.00666666684 0
0.03999999912 -0.00666666684 0
0.02666666732 -0.00666666684 0
0.01333333364 -0.00666666684 0
0.0 -0.00666666684 0
0.400000004 -0.01999999956 0
0.3866666556 -0.01999999956 0
0.3733333348 -0.01999999956 0
0.3600000144 -0.01999999956 0
0.346666664 -0.01999999956 0
0.3333333432 -0.01999999956 0
0.3199999928 -0.01999999956 0
0.3066666724 -0.01999999956 0
0.293333322 -0.01999999956 0
0.2800000012 -0.01999999956 0
0.2666666804 -0.01999999956 0
0.25333333 -0.01999999956 0
0.2399999948 -0.01999999956 0
0.226666674 -0.01999999956 0
0.2133333384 -0.01999999956 0
0.2000000028 -0.01999999956 0
0.1866666676 -0.01999999956 0
0.173333332 -0.01999999956 0
0.1599999964 -0.01999999956 0
0.1466666608 -0.01999999956 0
0.1333333404 -0.01999999956 0
0.1199999972 -0.01999999956 0
0.1066666692 -0.01999999956 0
0.0933333336 -0.01999999956 0
0.0799999984 -0.01999999956 0
0.06666667 -0.01999999956 0
0.0533333348 -0.01999999956 0
0.03999999912 -0.01999999956 0
0.02666666732 -0.01999999956 0
0.01333333364 -0.01999999956 0
0.0 -0.01999999956 0
0.400000004 -0.03333333508 0
0.3866666556 -0.03333333508 0
0.3733333348 -0.03333333508 0
0.3600000144 -0.03333333508 0
0.346666664 -0.03333333508 0
0.3333333432 -0.03333333508 0
0.3199999928 -0.03333333508 0
0.3066666724 -0.03333333508 0
0.293333322 -0.03333333508 0
0.2800000012 -0.03333333508 0
0.2666666804 -0.03333333508 0
0.25333333 -0.03333333508 0
0.2399999948 -0.03333333508 0
0.226666674 -0.03333333508 0
0.2133333384 -0.03333333508 0
0.2000000028 -0.03333333508 0
0.1866666676 -0.03333333508 0
0.173333332 -0.03333333508 0
0.1599999964 -0.03333333508 0
0.1466666608 -0.03333333508 0
0.1333333404 -0.03333333508 0
0.1199999972 -0.03333333508 0
0.1066666692 -0.03333333508 0
0.0933333336 -0.03333333508 0
0.0799999984 -0.03333333508 0
0.06666667 -0.03333333508 0
0.0533333348 -0.03333333508 0
0.03999999912 -0.03333333508 0
0.02666666732 -0.03333333508 0
0.01333333364 -0.03333333508 0
0.0 -0.03333333508 0
0.400000004 -0.0466666668 0
0.3866666556 -0.0466666668 0
0.3733333348 -0.0466666668 0
0.3600000144 -0.0466666668 0
0.346666664 -0.0466666668 0
0.3333333432 -0.0466666668 0
0.3199999928 -0.0466666668 0
0.3066666724 -0.0466666668 0
0.293333322 -0.0466666668 0
0.2800000012 -0.0466666668 0
0.2666666804 -0.0466666668 0
0.25333333 -0.0466666668 0
0.2399999948 -0.0466666668 0
0.226666674 -0.0466666668 0
0.2133333384 -0.0466666668 0
0.2000000028 -0.0466666668 0
0.1866666676 -0.0466666668 0
0.173333332 -0.0466666668 0
0.1599999964 -0.0466666668 0
0.1466666608 -0.0466666668 0
0.1333333404 -0.0466666668 0
0.1199999972 -0.0466666668 0
0.1066666692 -0.0466666668 0
0.0933333336 -0.0466666668 0
0.0799999984 -0.0466666668 0
0.06666667 -0.0466666668 0
0.0533333348 -0.0466666668 0
0.03999999912 -0.0466666668 0
0.02666666732 -0.0466666668 0
0.01333333364 -0.0466666668 0
0.0 -0.0466666668 0
0.400000004 -0.0599999988 0
0.3866666556 -0.0599999988 0
0.3733333348 -0.0599999988 0
0.3600000144 -0.0599999988 0
0.346666664 -0.0599999988 0
0.3333333432 -0.0599999988 0
0.3199999928 -0.0599999988 0
0.3066666724 -0.0599999988 0
0.293333322 -0.0599999988 0
0.2800000012 -0.0599999988 0
0.2666666804 -0.0599999988 0
0.25333333 -0.0599999988 0
0.2399999948 -0.0599999988 0
0.226666674 -0.0599999988 0
0.2133333384 -0.0599999988 0
0.2000000028 -0.0599999988 0
0.1866666676 -0.0599999988 0
0.173333332 -0.0599999988 0
0.1599999964 -0.0599999988 0
0.1466666608 -0.0599999988 0
0.1333333404 -0.0599999988 0
0.1199999972 -0.0599999988 0
0.1066666692 -0.0599999988 0
0.0933333336 -0.0599999988 0
0.0799999984 -0.0599999988 0
0.06666667 -0.0599999988 0
0.0533333348 -0.0599999988 0
0.03999999912 -0.0599999988 0
0.02666666732 -0.0599999988 0
0.01333333364 -0.0599999988 0
0.0 -0.0599999988 0
0.400000004 -0.0733333304 0
0.3866666556 -0.0733333304 0
0.3733333348 -0.0733333304 0
0.3600000144 -0.0733333304 0
0.346666664 -0.0733333304 0
0.3333333432 -0.0733333304 0
0.3199999928 -0.0733333304 0
0.3066666724 -0.0733333304 0
0.293333322 -0.0733333304 0
0.2800000012 -0.0733333304 0
0.2666666804 -0.0733333304 0
0.25333333 -0.0733333304 0
0.2399999948 -0.0733333304 0
0.226666674 -0.0733333304 0
0.2133333384 -0.0733333304 0
0.2000000028 -0.0733333304 0
0.1866666676 -0.0733333304 0
0.173333332 -0.0733333304 0
0.1599999964 -0.0733333304 0
0.1466666608 -0.0733333304 0
0.1333333404 -0.0733333304 0
0.1199999972 -0.0733333304 0
0.1066666692 -0.0733333304 0
0.0933333336 -0.0733333304 0
0.0799999984 -0.0733333304 0
0.06666667 -0.0733333304 0
0.0533333348 -0.0733333304 0
0.03999999912 -0.0733333304 0
0.02666666732 -0.0733333304 0
0.01333333364 -0.0733333304 0
0.0 -0.0733333304 0
0.400000004 -0.086666666 0
0.3866666556 -0.086666666 0
0.3733333348 -0.086666666 0
0.3600000144 -0.086666666 0
0.346666664 -0.086666666 0
0.3333333432 -0.086666666 0
0.3199999928 -0.086666666 0
0.3066666724 -0.086666666 0
0.293333322 -0.086666666 0
0.2800000012 -0.086666666 0
0.2666666804 -0.086666666 0
0.25333333 -0.086666666 0
0.2399999948 -0.086666666 0
0.226666674 -0.086666666 0
0.2133333384 -0.086666666 0
0.2000000028 -0.086666666 0
0.1866666676 -0.086666666 0
0.173333332 -0.086666666 0
0.1599999964 -0.086666666 0
0.1466666608 -0.086666666 0
0.1333333404 -0.086666666 0
0.1199999972 -0.086666666 0
0.1066666692 -0.086666666 0
0.0933333336 -0.086666666 0
0.0799999984 -0.086666666 0
0.06666667 -0.086666666 0
0.0533333348 -0.086666666 0
0.03999999912 -0.086666666 0
0.02666666732 -0.086666666 0
0.01333333364 -0.086666666 0
0.0 -0.086666666 0
0.400000004 -0.1000000016 0
0.3866666556 -0.1000000016 0
0.3733333348 -0.1000000016 0
0.3600000144 -0.1000000016 0
0.346666664 -0.1000000016 0
0.3333333432 -0.1000000016 0
0.3199999928 -0.1000000016 0
0.3066666724 -0.1000000016 0
0.293333322 -0.1000000016 0
0.2800000012 -0.1000000016 0
0.2666666804 -0.1000000016 0
0.25333333 -0.1000000016 0
0.2399999948 -0.1000000016 0
0.226666674 -0.1000000016 0
0.2133333384 -0.1000000016 0
0.2000000028 -0.1000000016 0
0.1866666676 -0.1000000016 0
0.173333332 -0.1000000016 0
0.1599999964 -0.1000000016 0
0.1466666608 -0.1000000016 0
0.1333333404 -0.1000000016 0
0.1199999972 -0.1000000016 0
0.1066666692 -0.1000000016 0
0.0933333336 -0.1000000016 0
0.0799999984 -0.1000000016 0
0.06666667 -0.1000000016 0
0.0533333348 -0.1000000016 0
0.03999999912 -0.1000000016 0
0.02666666732 -0.1000000016 0
0.01333333364 -0.1000000016 0
0.0 -0.1000000016 0
0.400000004 -0.1133333372 0
0.3866666556 -0.1133333372 0
0.3733333348 -0.1133333372 0
0.3600000144 -0.1133333372 0
0.346666664 -0.1133333372 0
0.3333333432 -0.1133333372 0
0.3199999928 -0.1133333372 0
0.3066666724 -0.1133333372 0
0.293333322 -0.1133333372 0
0.2800000012 -0.1133333372 0
0.2666666804 -0.1133333372 0
0.25333333 -0.1133333372 0
0.2399999948 -0.1133333372 0
0.226666674 -0.1133333372 0
0.2133333384 -0.1133333372 0
0.2000000028 -0.1133333372 0
0.1866666676 -0.1133333372 0
0.173333332 -0.1133333372 0
0.1599999964 -0.1133333372 0
0.1466666608 -0.1133333372 0
0.1333333404 -0.1133333372 0
0.1199999972 -0.1133333372 0
0.1066666692 -0.1133333372 0
0.0933333336 -0.1133333372 0
0.0799999984 -0.1133333372 0
0.06666667 -0.1133333372 0
0.0533333348 -0.1133333372 0
0.03999999912 -0.1133333372 0
0.02666666732 -0.1133333372 0
0.01333333364 -0.1133333372 0
0.0 -0.1133333372 0
0.400000004 -0.1266666652 0
0.3866666556 -0.1266666652 0
0.3733333348 -0.1266666652 0
[...]
POINT_DATA 961
SCALARS Temp float 1
LOOKUP_TABLE default
0.7332498162174934
0.7625360604739475
0.7835529652771318
0.7988343736372824
0.810031248196665
0.8182756909320194
0.8243736877740656
0.8289053562102829
0.8322929288942357
0.8348457802201701
0.8367932842197362
0.8383075983294241
0.8395202865182307
0.8405352565041295
0.8414384127325201
0.8423053139359216
0.8432081853116874
0.8442223645374034
0.8454330736716601
0.8469431663358737
0.8488825626271124
0.8514206706363078
0.8547822201571549
0.859269759673025
0.8652938589808311
0.873415972069493
0.8844095041619284
0.8993491514941602
0.9197469836645082
0.9477974510964812
0.9869815069589598
0.7739310857700109
0.8026483141089553
0.8234394838507173
0.8386372465692719
0.8497956756872628
0.8580243386586744
0.8641175846673355
0.8686499928308744
0.8720409017686965
0.8745981799809378
0.8765504282938065
0.8780694403630225
0.8792866513845844
0.880305966215337
0.8812133564162095
0.882084489024969
0.8829917125657197
0.8840104873907036
0.8852261390623187
0.8867415783476873
0.8886866930547063
0.8912306871086975
0.8945977896086221
0.8990895006243403
0.9051143600756113
0.9132299551152784
0.9242022607759708
0.9390906146457815
0.9593751091337498
0.9871395872601259
1.0254023279639015
2.678589986300996
2.6828564143227482
2.6947470734983447
2.705713908309658
2.714782684038002
2.7219981603571632
2.727647789268786
2.7320418877944026
2.735455709053364
2.7381177027533843
2.7402126929108817
2.741889281778389
2.7432678740970835
2.7444481821287097
2.7455159047282067
2.7465486994495745
2.747621736781483
2.748813147381426
2.750209656637328
2.751912756694722
2.75404576058236
2.756761972003054
2.7602541116930306
2.764764629862436
2.7705952945568995
2.7781111397881704
2.7877246371916025
2.7998179846292315
2.814450060938771
2.830310943785154
2.8360051679785396
4.559511581040248
4.561839868792144
4.567554404603249
4.574694979179571
4.581465409284457
4.587335329791731
4.592218555237532
4.596197225451183
4.599407193071848
4.6019916336563575
4.6040833590987065
4.605799532873955
4.607241894244186
4.6084993528340705
4.60965150427756
4.610772485567313
4.611934966796774
4.613214220518236
4.614692301392057
4.616462347237821
4.61863290987676
4.621332014043042
4.624710055608539
4.6289397299489945
4.634208677243988
4.64069554345375
4.6485079347101195
4.657529084156993
4.667048922794235
4.674669801750731
4.677774781820842
6.4348774250659915
6.436116541703286
6.43946537497797
6.443999650046511
6.448828391242667
6.453365652600632
6.457370258342451
6.460785252357438
6.463643441547138
6.466016213800809
6.467987720077989
6.469642593323164
6.471060934438344
6.47231715899671
6.473480841470971
6.474618606240057
6.475796558367839
6.477082941177046
6.478550818424631
6.480280544293516
6.482361637858471
6.484893381189165
6.487982788411751
6.491737581750049
6.496249516566593
6.501559618072785
6.507589749642991
6.514016208215134
6.52005566578542
6.52451805058275
6.526169507820614
8.306890517061857
8.307645258811934
8.309733631214307
8.31272365815637
8.3161153796007
8.319509969245683
8.322663879551087
8.325467208706137
8.327894544580506
8.329967865151703
8.331733037920968
8.333246165693922
8.334566340078492
8.335752343484367
8.336861676039772
8.337950935423764
8.339076938903748
8.340298146527957
8.341676046073593
8.34327612184948
8.34516788288962
8.34742315261104
8.350111262000576
8.353289100595923
8.35698264689606
8.361155343138257
8.365658478707529
8.370165391365926
8.374142619136736
8.37692210141406
8.377926867268027
10.176646198759652
10.177126918395482
10.17848220148512
10.18048572108101
10.18285455135369
10.185330277288838
10.187725482473246
10.189930302122415
10.191897277712656
10.193620976349768
10.195121427713936
10.196432654725
10.197595554224598
10.19865393549259
10.199652643957691
10.200637001547612
10.201653004649323
10.202747826772898
10.20397024810622
10.205370598762487
10.206999687956106
10.208906001534134
10.211130101602842
10.213694908323511
10.216590194059007
10.219750269401732
10.223026707053156
10.226167968139581
10.228828152400265
10.230628954445343
10.231267912326869
12.044627239746564
12.044936904958591
12.045819606278066
12.047151820877863
12.048770395701245
12.050514099148124
12.05225284219387
12.053899083552732
12.055405421300764
12.056755657396845
12.057955021795916
12.059022131523275
12.059983311386503
12.060869014133539
12.061711800641472
12.062545383958847
12.06340431316318
12.064323913843145
12.065340147253362
12.066489022345523
12.067805122589608
12.069318712267876
12.071050734637161
12.073005076928986
12.0751576911715
12.077443391794258
12.0797438722099
12.081884368966964
12.083648874794939
12.084819068467851
12.085229763002886
13.911073341850638
13.911264509821445
13.911813433950156
13.912653349158811
13.913693025043987
13.914837644504027
13.916005515479695
13.917136843131724
13.918195125101164
13.919163862107395
13.920041581987014
13.920837021659798
13.92156533079768
13.92224544743571
13.922898454612337
13.923546655706971
13.924213099785412
13.92492128674587
13.925694804183507
13.926556629173334
13.927527792114358
13.928625069025387
13.929857336966117
13.931220410046688
13.932690512492298
13.934217533845587
13.935720600290283
13.937089853390225
13.938198148637781
13.9389233107155
13.939175991998233
15.776101229626779
15.776201261307808
15.77649009800437
15.776936829583796
15.777498301958293
15.77812821608255
15.778784956039697
15.779436333375713
15.780061094877036
15.780648047175458
15.7811940419845
15.781701733925372
15.782177650360708
15.782630756799197
15.7830714845069
15.783511118410624
15.783961418911485
15.784434335668038
15.784941680291311
15.785494615138806
15.786102803124344
15.78677306392157
15.78750739169058
15.788300335437128
15.789135959309787
15.789985100215945
15.79080418167559
15.79153718136619
15.792121958739422
15.792500676122682
15.792631938894822
17.639766779924305
17.639788042886796
17.639850539464295
17.639950629858316
17.640082961408172
17.640241309121514
17.640419405762024
17.64061158461404
17.640813172193607
17.64102063189282
17.64123153482206
17.641444420933297
17.641658615175484
17.64187404014308
17.642091038594906
17.642310211700554
17.642532271962736
17.64275789871727
17.64298758663589
17.64322147625223
17.64345915761818
17.643699446149256
17.643940133882552
17.644177751013117
17.64440738131769
17.644622619129457
17.644815764649277
17.644978341821368
17.645101958904018
17.64517941225884
17.64520580878489
17.743747754303584
17.743765347391342
17.743817250028
17.743900970620885
17.74401277829966
17.744148216777027
17.744302640229044
17.74447166261633
17.744651472495242
17.744838992312374
17.745031916900423
17.74522865934788
17.745428245205343
17.74563018612374
17.74583434531656
17.74604080377957
17.746249731207335
17.746461255482682
17.746675327097698
17.746891573812142
17.747109143170153
17.747326537841143
17.747541451271292
17.747750635590045
17.747949832378826
17.74813382232911
17.748296642488175
17.7484320021058
17.748533885434682
17.748597264009327
17.748618783350597
17.847620499012713
17.847635349456937
17.847679287163686
17.847750555214883
17.847846484144835
17.847963815535227
17.84809905425898
17.8482487815049
17.848409895854093
17.84857975746739
17.848756251094052
17.848937777115832
17.84912319532706
17.849311743048155
17.849502936691756
17.84969646579349
17.84989208571972
17.85008950668567
17.85028827940407
17.850487676818144
17.85068657333722
17.850883328938483
17.85107568582623
17.851260703691107
17.851434752244195
17.85159359533483
17.85173258876785
17.851846999277477
17.85193242576336
17.85198526742283
17.852003156757622
17.951390211325847
17.9514029629283
17.95144077581714
17.951502376988678
17.95158580860528
17.951688637141068
17.95180818909208
17.951941769736305
17.952086843900098
17.95224115590468
17.95240279615729
17.952570214042705
17.952742191644507
17.952917792759806
17.953096292935996
17.95327709835817
17.95345966041346
17.953643385631906
17.95382754361227
17.95401117475486
17.954193001043656
17.954371347588683
17.954544081141
17.954708585692657
17.9548617849899
17.95500023260458
17.95512027782534
17.95521830529929
17.955291030693875
17.95533581403831
17.955350940173396
18.05506078467321
18.055071897997138
18.05510491112856
18.055158877681347
18.055232326973325
18.05532340232758
18.055430021524906
18.055550030662737
18.055681338527737
18.05582201225458
18.055970338443835
18.056124844990332
18.05628429211759
18.056447642211374
18.056614011449064
18.056782609549085
18.056952674199536
18.057123400797686
18.057293871173393
18.057462984209085
18.057629392168376
18.057791449782734
18.057947180427583
18.058094274606923
18.058230124692063
18.058351908382825
18.0584567223354
18.0585417607111
18.058604524332516
18.058643034136548
18.05865601720467
18.158635154147746
18.158644967898503
18.15867416114955
18.15872201256177
18.158787390984806
18.15886884878785
18.158964732878395
18.15907329379209
18.159192785418448
18.159321539620212
18.159458018812533
18.15960084003411
18.159748775556306
18.15990073647208
18.160055740308618
18.16021286758415
18.160371213211143
18.1605298336259
18.160687693590514
18.160843615857253
18.160996237375397
18.1611439780499
18.161285024670796
18.161417341541437
18.161538708117938
18.161646791390282
18.161739251354913
18.161813873865622
18.161868720036836
18.161902274110037
18.161913569534768
18.258793422806722
18.258802187277322
18.258828287788738
18.25887116103562
18.25892991657721
18.25900340097417
18.2590902758039
18.259189095703146
18.25929838258592
18.259416683213793
18.259542612974514
18.25967487901312
18.259812285846184
18.259953727924746
18.260098168895745
18.26024461132036
18.26039206197933
18.260539493528725
18.260685806270452
18.260829793049005
18.260970110488557
18.26110526149617
18.261233590289354
18.26135329881612
18.261462482776395
18.261559192292047
18.26164151437476
18.26170767204949
18.261756132217627
18.261785709727892
18.26179565450693
18.352191769922467
18.35219967225994
18.35222322560042
18.352261979603202
18.35231521729253
18.352381999862757
18.352461222324415
18.352551669868678
18.35265207342536
18.35276115390289
18.352877658072416
18.353000379466792
18.35312816638956
18.353259920278866
18.353394583368576
18.353531118498363
18.35366848545217
18.35380561431147
18.353941379184622
18.354074574929392
18.354203899506928
18.354327945915312
18.35444520396165
18.35455407886197
18.354652923751875
18.354740089658485
18.354813989803507
18.35487317396451
18.35491640722278
18.354942744321367
18.354951590959256
18.438797885902858
18.43880507232163
18.438826506269645
18.438861819367347
18.438910421381287
18.438971532013134
18.439044221187082
18.439127450181196
18.43922011357625
18.439321073297076
18.43942918788437
18.439543330840277
18.4396623995968
18.439785317601718
18.43991102798911
18.44003848100008
18.440166618866098
18.440294358319996
18.440420573618884
18.440544082233906
18.44066363527911
18.44077791580822
18.44088554454355
18.440985098705863
18.441075140496483
18.441154257957034
18.441221115210336
18.44127450867242
18.44131342523006
18.441337096157206
18.44134504096402
18.518582066165166
18.518588653353845
18.518608310406382
18.51864072921598
18.51868541333002
18.518741700849894
18.518808794053594
18.51888578975785
18.51897171134935
18.519065535128618
18.51916621425529
18.519272694674378
18.519383924291365
18.51949885742629
18.51961645275435
18.51973566638802
18.51985544324763
18.519974706582047
18.520092348054266
18.520207220099294
18.52031813212504
18.520423853028916
18.52052311913006
18.520614652255237
18.520697184342545
18.520769490834645
18.52083043015782
18.520878986623075
18.520914313955856
18.52093577497277
18.520942973466294
18.59151713298244
18.591523216019098
18.59154137605146
18.591571349834247
18.591612711103473
18.591664887332186
18.591727181875534
18.59179879667842
18.591878857076292
18.591966432380055
18.59206055563304
18.592160237433305
18.5922644749485
18.5923722578586
18.592482569309876
18.592594383157657
18.592706660179218
18.592818342859804
18.592928350745446
18.593035577674886
18.5931388920444
18.593237142065323
18.59332916481825
18.59341380317639
18.59348992696591
18.5935564603827
18.593612413290245
18.59365691434008
18.59368924399441
18.59370886417348
18.59371544182326
18.65757837534525
18.657584033284643
18.65760092960702
18.657628834810115
18.65766737568776
18.65771604779681
18.657774232317024
18.657841213292766
18.657916197157903
18.657998329038016
18.658086709264843
18.658180405454914
18.658278461207672
18.65837990296692
18.658483743084624
18.658588980086755
18.65869459844643
18.658799567260413
18.65890283946518
18.659003352575727
18.65910003176717
18.659191796866043
18.659277571875105
18.659356300620967
18.65942696499289
18.659488607647077
18.65954035710974
18.659581453694784
18.659611274939905
18.659629358123166
18.659635417981917
18.71674389366465
18.716749193544857
18.716765024455746
18.716791182490947
18.716827334875575
18.716873029415794
18.716927707598607
18.716990717917046
18.71706133154225
18.71713875545477
18.717222146476217
18.717310621944534
18.717403268051164
18.717499147252255
18.717597302796037
18.7176967611606
18.717796534407714
18.71789562169088
18.71799301126166
18.718087683692687
18.718178616879246
18.71826479408723
18.718345213570466
18.718418902988972
18.718484935238884
18.718542447479596
18.718590661558878
18.71862890461525
18.718656629007533
18.718673429721218
18.718679057936175
18.76899381198951
18.768998811758756
18.769013749010522
18.769038439364408
18.769072581016353
18.76911576205414
18.76916747087016
18.769227106674336
18.76929399235279
18.769367385261017
18.769446489370367
18.769530464836926
18.769618435989145
18.7697094990522
18.76980272767911
18.769897176930538
18.769991887473285
18.77008588911942
18.770178204817583
18.770267855608537
18.77035386690993
18.770435277174492
18.770511147393595
18.770580574409315
18.770642704798583
18.77069675105491
18.770742008490938
18.770777871914998
18.7708038515486
18.770819586751063
18.770824856619374
18.814311214012154
18.81431596469601
18.814330159781377
18.814353629806046
18.814386096716483
18.81442717966965
18.81447640352246
18.814533207325823
18.81459695513284
18.814666945076336
18.814742420095932
18.81482257664867
18.81490657238446
18.81499353403464
18.815082563621335
18.81517274351844
18.815263141949266
18.815352817961156
18.815440826807205
18.81552622608948
18.815608082882726
18.81568548271526
18.815757538860066
18.815823404695692
18.81588228604527
18.815933455176058
18.815976265060563
18.816010163157294
18.816034704402913
18.816049562276955
18.81605453727215
18.85268116735434
18.85268571470037
18.852699303636278
18.852721776043907
18.852752871989004
18.8527922344516
18.852839416442396
18.852893888053714
18.85295504578116
18.853022220352887
18.853094686398908
18.85317167050709
18.853252358634208
18.853335904067606
18.853421434085075
18.853508055762255
18.853594862370542
18.853680939349506
18.853765370645917
18.85384724565602
18.85392566688288
18.85399975906246
18.854068678210467
18.85413162319483
18.854187846870214
18.85423666842342
18.854277485669964
18.854309786710786
18.85433316079886
18.854347307486773
18.854352043570664
18.884091422968513
18.88409580871474
18.88410891574255
18.884130594433444
18.884160598467346
18.884198588801457
18.884244139816516
18.884296745347708
18.884355826942926
18.88442074079639
18.88449078664367
18.884565215329022
18.884643236002834
18.884724024103868
18.884806728312036
18.884890476860992
18.884974384547093
18.885057559381433
18.885139109574066
18.885218151001716
18.885293815193595
18.88536525850035
18.885431670906005
18.885492286971246
18.88554639605166
18.885593353413064
18.88563259108958
18.885663628003158
18.885686079303895
18.885699664149886
18.885704211567507
18.90853198993139
18.908536252815228
18.908548993351168
18.90857006808719
18.908599240602776
18.908636184973282
18.90868049124778
18.908731670777243
18.908789163732692
18.908852345414566
18.908920534598508
18.90899300075084
18.909068971062258
18.9091476384249
18.909228168569133
18.909309706708346
18.90939138495017
18.909472329397346
18.909551667553853
18.909628536127183
18.909702089208405
18.90977150743215
18.909836006588158
18.90989484808681
18.909947348507142
18.909992889827752
18.910030929263918
18.910061008305878
18.910082760992562
18.910095920740574
18.910100325454014
18.92599500351081
18.925999180095328
18.926011663153364
18.92603231341577
18.926060901188738
18.926097109485358
18.92614053906825
18.926190713321233
18.92624708528181
18.92630904354136
18.926375920225233
18.926446997971595
18.9265215168499
18.926598682323597
18.926677672496744
18.926757644965146
18.926837744478014
18.92691711031902
18.926994883973244
18.927070217131142
18.927142279976902
18.927210270321403
18.927273422062516
18.92733101531627
18.927382385508533
18.927426933011052
18.92746413229867
18.92749354027279
18.927514803832995
18.927527666082806
18.927531970948994
18.936475030626266
18.936479155999788
18.93649148624781
18.936511884526595
18.936540125047404
18.936575896021253
18.936618804456614
18.936668380774
18.936724085563817
18.936785315254657
18.936851409884515
18.936921659943263
18.936995313222646
18.937071582766556
18.937149654175126
18.93722869256806
18.937307850382147
18.93738627490503
18.93746311608304
18.93753753463209
18.937608710379205
18.93767585137178
18.937738202244088
18.937795054151067
18.93784575359452
18.937889711716835
18.937926413069125
18.937955423527555
18.93797639746656
18.937989083611598
18.937993329381413
18.939968727903032
18.9399728362996
18.93998511588639
18.940005430614505
18.94003355597571
18.940069181887022
18.940111917409304
18.94016129527898
18.9402167785769
18.940277766321696
18.940343601173037
18.940413576229393
18.94048694185565
18.940562913628316
18.940640679657644
18.940719407586283
18.94079825242989
18.940876364159198
18.940952895552364
18.9410270103391
18.94109789155817
18.94116475065741
18.941226835828672
18.94128344187617
18.941333918955667
18.94137768175652
18.941414218143077
18.94144309693892
18.94146397497085
18.94147660280747
18.94148082901182
