# vtk DataFile Version 2.0
Unstructured Grid Example
ASCII
DATASET UNSTRUCTURED_GRID

POINTS 961 float
0.400000004 0.01999999956 0
0.3866666556 0.01999999956 0
0.3733333348 0.01999999956 0
0.3600000144 0.01999999956 0
0.346666664 0.01999999956 0
0.3333333432 0.01999999956 0
0.3199999928 0.01999999956 0
0.3066666724 0.01999999956 0
0.293333322 0.01999999956 0
0.2800000012 0.01999999956 0
0.2666666804 0.01999999956 0
0.25333333 0.01999999956 0
0.2399999948 0.01999999956 0
0.226666674 0.01999999956 0
0.2133333384 0.01999999956 0
0.2000000028 0.01999999956 0
0.1866666676 0.01999999956 0
0.173333332 0.01999999956 0
0.1599999964 0.01999999956 0
0.1466666608 0.01999999956 0
0.1333333404 0.01999999956 0
0.1199999972 0.01999999956 0
0.1066666692 0.01999999956 0
0.0933333336 0.01999999956 0
0.0799999984 0.01999999956 0
0.06666667 0.01999999956 0
0.0533333348 0.01999999956 0
0.03999999912 0.01999999956 0
0.02666666732 0.01999999956 0
0.01333333364 0.01999999956 0
0.0 0.01999999956 0
0.400000004 0.00666666684 0
0.3866666556 0.00666666684 0
0.3733333348 0.00666666684 0
0.3600000144 0.00666666684 0
0.346666664 0.00666666684 0
0.3333333432 0.00666666684 0
0.3199999928 0.00666666684 0
0.3066666724 0.00666666684 0
0.293333322 0.00666666684 0
0.2800000012 0.00666666684 0
0.2666666804 0.00666666684 0
0.25333333 0.00666666684 0
0.2399999948 0.00666666684 0
0.226666674 0.00666666684 0
0.2133333384 0.00666666684 0
0.2000000028 0.00666666684 0
0.1866666676 0.00666666684 0
0.173333332 0.00666666684 0
0.1599999964 0.00666666684 0
0.1466666608 0.00666666684 0
0.1333333404 0.00666666684 0
0.1199999972 0.00666666684 0
0.1066666692 0.00666666684 0
0.0933333336 0.00666666684 0
0.0799999984 0.00666666684 0
0.06666667 0.00666666684 0
0.0533333348 0.00666666684 0
0.03999999912 0.00666666684 0
0.02666666732 0.00666666684 0
0.01333333364 0.00666666684 0
0.0 0.00666666684 0
0.400000004 -0.00666666684 0
0.3866666556 -0.00666666684 0
0.3733333348 -0.00666666684 0
0.3600000144 -0.00666666684 0
0.346666664 -0.00666666684 0
0.3333333432 -0.00666666684 0
0.3199999928 -0.00666666684 0
0.3066666724 -0.00666666684 0
0.293333322 -0.00666666684 0
0.2800000012 -0.00666666684 0
0.2666666804 -0.00666666684 0
0.25333333 -0.00666666684 0
0.2399999948 -0.00666666684 0
0.226666674 -0.00666666684 0
0.2133333384 -0.00666666684 0
0.2000000028 -0.00666666684 0
0.1866666676 -0.00666666684 0
0.173333332 -0.00666666684 0
0.1599999964 -0.00666666684 0
0.1466666608 -0.00666666684 0
0.1333333404 -0.00666666684 0
0.1199999972 -0.00666666684 0
0.1066666692 -0.00666666684 0
0.0933333336 -0.00666666684 0
0.0799999984 -0.00666666684 0
0.06666667 -0.00666666684 0
0.0533333348 -0.00666666684 0
0.03999999912 -0.00666666684 0
0.02666666732 -0.00666666684 0
0.01333333364 -0.00666666684 0
0.0 -0.00666666684 0
0.400000004 -0.01999999956 0
0.3866666556 -0.01999999956 0
0.3733333348 -0.01999999956 0
0.3600000144 -0.01999999956 0
0.346666664 -0.01999999956 0
0.3333333432 -0.01999999956 0
0.3199999928 -0.01999999956 0
0.3066666724 -0.01999999956 0
0.293333322 -0.01999999956 0
0.2800000012 -0.01999999956 0
0.2666666804 -0.01999999956 0
0.25333333 -0.01999999956 0
0.2399999948 -0.01999999956 0
0.226666674 -0.01999999956 0
0.2133333384 -0.01999999956 0
0.2000000028 -0.01999999956 0
0.1866666676 -0.01999999956 0
0.173333332 -0.01999999956 0
0.1599999964 -0.01999999956 0
0.1466666608 -0.01999999956 0
0.1333333404 -0.01999999956 0
0.1199999972 -0.01999999956 0
0.1066666692 -0.01999999956 0
0.0933333336 -0.01999999956 0
0.0799999984 -0.01999999956 0
0.06666667 -0.01999999956 0
0.0533333348 -0.01999999956 0
0.03999999912 -0.01999999956 0
0.02666666732 -0.01999999956 0
0.01333333364 -0.01999999956 0
0.0 -0.01999999956 0
0.400000004 -0.03333333508 0
0.3866666556 -0.03333333508 0
0.3733333348 -0.03333333508 0
0.3600000144 -0.03333333508 0
0.346666664 -0.03333333508 0
0.3333333432 -0.03333333508 0
0.3199999928 -0.03333333508 0
0.3066666724 -0.03333333508 0
0.293333322 -0.03333333508 0
0.2800000012 -0.03333333508 0
0.2666666804 -0.03333333508 0
0.25333333 -0.03333333508 0
0.2399999948 -0.03333333508 0
0.226666674 -0.03333333508 0
0.2133333384 -0.03333333508 0
0.2000000028 -0.03333333508 0
0.1866666676 -0.03333333508 0
0.173333332 -0.03333333508 0
0.1599999964 -0.03333333508 0
0.1466666608 -0.03333333508 0
0.1333333404 -0.03333333508 0
0.1199999972 -0.03333333508 0
0.1066666692 -0.03333333508 0
0.0933333336 -0.03333333508 0
0.0799999984 -0.03333333508 0
0.06666667 -0.03333333508 0
0.0533333348 -0.03333333508 0
0.03999999912 -0.03333333508 0
0.02666666732 -0.03333333508 0
0.01333333364 -0.03333333508 0
0.0 -0.03333333508 0
0.400000004 -0.0466666668 0
0.3866666556 -0.0466666668 0
0.3733333348 -0.0466666668 0
0.3600000144 -0.0466666668 0
0.346666664 -0.0466666668 0
0.3333333432 -0.0466666668 0
0.3199999928 -0.0466666668 0
0.3066666724 -0.0466666668 0
0.293333322 -0.0466666668 0
0.2800000012 -0.0466666668 0
0.2666666804 -0.0466666668 0
0.25333333 -0.0466666668 0
0.2399999948 -0.0466666668 0
0.226666674 -0.0466666668 0
0.2133333384 -0.0466666668 0
0.2000000028 -0.0466666668 0
0.1866666676 -0.0466666668 0
0.173333332 -0.0466666668 0
0.1599999964 -0.0466666668 0
0.1466666608 -0.0466666668 0
0.1333333404 -0.0466666668 0
0.1199999972 -0.0466666668 0
0.1066666692 -0.0466666668 0
0.0933333336 -0.0466666668 0
0.0799999984 -0.0466666668 0
0.06666667 -0.0466666668 0
0.0533333348 -0.0466666668 0
0.03999999912 -0.0466666668 0
0.02666666732 -0.0466666668 0
0.01333333364 -0.0466666668 0
0.0 -0.0466666668 0
0.400000004 -0.0599999988 0
0.3866666556 -0.0599999988 0
0.3733333348 -0.0599999988 0
0.3600000144 -0.0599999988 0
0.346666664 -0.0599999988 0
0.3333333432 -0.0599999988 0
0.3199999928 -0.0599999988 0
0.3066666724 -0.0599999988 0
0.293333322 -0.0599999988 0
0.2800000012 -0.0599999988 0
0.2666666804 -0.0599999988 0
0.25333333 -0.0599999988 0
0.2399999948 -0.0599999988 0
0.226666674 -0.0599999988 0
0.2133333384 -0.0599999988 0
0.2000000028 -0.0599999988 0
0.1866666676 -0.0599999988 0
0.173333332 -0.0599999988 0
0.1599999964 -0.0599999988 0
0.1466666608 -0.0599999988 0
0.1333333404 -0.0599999988 0
0.1199999972 -0.0599999988 0
0.1066666692 -0.0599999988 0
0.0933333336 -0.0599999988 0
0.0799999984 -0.0599999988 0
0.06666667 -0.0599999988 0
0.0533333348 -0.0599999988 0
0.03999999912 -0.0599999988 0
0.02666666732 -0.0599999988 0
0.01333333364 -0.0599999988 0
0.0 -0.0599999988 0
0.400000004 -0.0733333304 0
0.3866666556 -0.0733333304 0
0.3733333348 -0.0733333304 0
0.3600000144 -0.0733333304 0
0.346666664 -0.0733333304 0
0.3333333432 -0.0733333304 0
0.3199999928 -0.0733333304 0
0.3066666724 -0.0733333304 0
0.293333322 -0.0733333304 0
0.2800000012 -0.0733333304 0
0.2666666804 -0.0733333304 0
0.25333333 -0.0733333304 0
0.2399999948 -0.0733333304 0
0.226666674 -0.0733333304 0
0.2133333384 -0.0733333304 0
0.2000000028 -0.0733333304 0
0.1866666676 -0.0733333304 0
0.173333332 -0.0733333304 0
0.1599999964 -0.0733333304 0
0.1466666608 -0.0733333304 0
0.1333333404 -0.0733333304 0
0.1199999972 -0.0733333304 0
0.1066666692 -0.0733333304 0
0.0933333336 -0.0733333304 0
0.0799999984 -0.0733333304 0
0.06666667 -0.0733333304 0
0.0533333348 -0.0733333304 0
0.03999999912 -0.0733333304 0
0.02666666732 -0.0733333304 0
0.01333333364 -0.0733333304 0
0.0 -0.0733333304 0
0.400000004 -0.086666666 0
0.3866666556 -0.086666666 0
0.3733333348 -0.086666666 0
0.3600000144 -0.086666666 0
0.346666664 -0.086666666 0
0.3333333432 -0.086666666 0
0.3199999928 -0.086666666 0
0.3066666724 -0.086666666 0
0.293333322 -0.086666666 0
0.2800000012 -0.086666666 0
0.2666666804 -0.086666666 0
0.25333333 -0.086666666 0
0.2399999948 -0.086666666 0
0.226666674 -0.086666666 0
0.2133333384 -0.086666666 0
0.2000000028 -0.086666666 0
0.1866666676 -0.086666666 0
0.173333332 -0.086666666 0
0.1599999964 -0.086666666 0
0.1466666608 -0.086666666 0
0.1333333404 -0.086666666 0
0.1199999972 -0.086666666 0
0.1066666692 -0.086666666 0
0.0933333336 -0.086666666 0
0.0799999984 -0.086666666 0
0.06666667 -0.086666666 0
0.0533333348 -0.086666666 0
0.03999999912 -0.086666666 0
0.02666666732 -0.086666666 0
0.01333333364 -0.086666666 0
0.0 -0.086666666 0
0.400000004 -0.1000000016 0
0.3866666556 -0.1000000016 0
0.3733333348 -0.1000000016 0
0.3600000144 -0.1000000016 0
0.346666664 -0.1000000016 0
0.3333333432 -0.1000000016 0
0.3199999928 -0.1000000016 0
0.3066666724 -0.1000000016 0
0.293333322 -0.1000000016 0
0.2800000012 -0.1000000016 0
0.2666666804 -0.1000000016 0
0.25333333 -0.1000000016 0
0.2399999948 -0.1000000016 0
0.226666674 -0.1000000016 0
0.2133333384 -0.1000000016 0
0.2000000028 -0.1000000016 0
0.1866666676 -0.1000000016 0
0.173333332 -0.1000000016 0
0.1599999964 -0.1000000016 0
0.1466666608 -0.1000000016 0
0.1333333404 -0.1000000016 0
0.1199999972 -0.1000000016 0
0.1066666692 -0.1000000016 0
0.0933333336 -0.1000000016 0
0.0799999984 -0.1000000016 0
0.06666667 -0.1000000016 0
0.0533333348 -0.1000000016 0
0.03999999912 -0.1000000016 0
0.02666666732 -0.1000000016 0
0.01333333364 -0.1000000016 0
0.0 -0.1000000016 0
0.400000004 -0.1133333372 0
0.3866666556 -0.1133333372 0
0.3733333348 -0.1133333372 0
0.3600000144 -0.1133333372 0
0.346666664 -0.1133333372 0
0.3333333432 -0.1133333372 0
0.3199999928 -0.1133333372 0
0.3066666724 -0.1133333372 0
0.293333322 -0.1133333372 0
0.2800000012 -0.1133333372 0
0.2666666804 -0.1133333372 0
0.25333333 -0.1133333372 0
0.2399999948 -0.1133333372 0
0.226666674 -0.1133333372 0
0.2133333384 -0.1133333372 0
0.2000000028 -0.1133333372 0
0.1866666676 -0.1133333372 0
0.173333332 -0.1133333372 0
0.1599999964 -0.1133333372 0
0.1466666608 -0.1133333372 0
0.1333333404 -0.1133333372 0
0.1199999972 -0.1133333372 0
0.1066666692 -0.1133333372 0
0.0933333336 -0.1133333372 0
0.0799999984 -0.1133333372 0
0.06666667 -0.1133333372 0
0.0533333348 -0.1133333372 0
0.03999999912 -0.1133333372 0
0.02666666732 -0.1133333372 0
0.01333333364 -0.1133333372 0
0.0 -0.1133333372 0
0.400000004 -0.1266666652 0
0.3866666556 -0.1266666652 0
0.3733333348 -0.1266666652 0
[...]
POINT_DATA 961
SCALARS Temp float 1
LOOKUP_TABLE default
1.12683014333821
1.1729507383734816
1.2083575991482558
1.236154907441311
1.2582542151232872
1.2759814180021418
1.290304842731991
1.301951647070215
1.31148413960468
1.3193481720373936
1.3259083563509995
1.3314716579815244
1.3363045669501585
1.3406469990050165
1.3447228503835995
1.3487487347578393
1.3529425927288403
1.3575317856146685
1.3627616335768917
1.3689049367389376
1.3762730757605994
1.385230209311843
1.396210451267626
1.4097425701565631
1.4264826072711907
1.4472610598995037
1.4731514825762853
1.5055735450757064
1.5464580613989338
1.5985479130902038
1.6664526260289012
1.1708074341570904
1.215860228571072
1.2509142289425637
1.2785569414289368
1.3005758294576202
1.3182611654461633
1.332563744078326
1.344201911680649
1.3537330703383703
1.3616002470699153
1.368166361960767
1.373737356092315
1.378579105879458
1.382931151397878
1.3870171557776678
1.3910535841087843
1.3952582515276588
1.3998583716224358
1.4050990419797824
1.4112526979519524
1.4186301220863924
1.4275944856578298
1.43857831292495
1.4521077628986863
1.4688345556219096
1.489581802827728
1.5154098481924891
1.5477126849806209
1.5883657146968633
1.6399591382073675
1.7060405721501988
3.215430666380726
3.2227982330902836
3.2433052021814324
3.263477533538406
3.281376728152522
3.2967284927344562
3.3097257172025523
3.32067844794747
3.3299092691173526
3.3377210318658412
3.3443899144177966
3.350167169384517
3.3552838648073404
3.359956568419896
3.3643930706791796
3.36879799991823
3.373378446919159
3.3783496593572675
3.383940882002588
3.3904014645073666
3.398007313864809
3.407067586980488
3.4179311832558197
3.4309919350458977
3.4466889447445137
3.4654932841489767
3.487856900298041
3.5140535018680525
3.543659705910361
3.5737782571857832
3.584610615977927
5.213684755481527
5.217861511849243
5.228357139243395
5.241933508418584
5.25555584305679
5.268146992679906
5.27936470563475
5.289182187875937
5.297707381175195
5.305103855502626
5.3115556026001
5.317251493873166
5.3223792376628944
5.327124066273318
5.33166971491375
5.336200608160962
5.3409047117899355
5.345976615514836
5.351620583586312
5.358053231806249
5.365505298920368
5.374221662570613
5.384457675251204
5.3964686429822555
5.410484950849336
5.426657635736241
5.444939480675172
5.464816012391101
5.484686253573032
5.500072530877122
5.5061990199853454
7.194038545940874
7.196403432652852
7.202879240297854
7.211906606050521
7.2219302003539845
7.231859255966521
7.241156153432232
7.2496025117583
7.257156160449947
7.263869690258412
7.2698461315079665
7.275214868967332
7.280118921984363
7.284708661857172
7.289139076318817
7.293569052775908
7.298161765284191
7.303085419613497
7.30851380077257
7.314625970663625
7.321604215957907
7.329628912632464
7.338867822628178
7.34945600403489
7.36145871235872
7.37480415814415
7.389162024752622
7.403731214201648
7.416896284647764
7.426358647318922
7.429817195191772
9.160688785203508
9.162204544712768
9.166448455223986
9.172665871544833
9.179961890401056
9.18758628089547
9.195037031726532
9.20203911180176
9.208473977271499
9.214322839494688
9.21962842474672
9.224470662166683
9.228951856813211
9.233187995756914
9.23730378587502
9.241429953819038
9.245701811568788
9.25025822064253
9.255240256371213
9.260788776892635
9.2670398671684
9.274116753150516
9.282115863211967
9.291083939403046
9.300980981444928
9.311622488066162
9.322594943507127
9.33315111009333
9.342178917196028
9.348354445147322
9.350562325032204
11.116271626254882
11.117282308569752
11.120159180557717
11.124494196085113
11.129766056536205
11.135480163085838
11.141253863241165
11.146836199260864
11.152089928233472
11.156961896286624
11.161457031805263
11.165618801160052
11.169515715612217
11.173232488631916
11.176864343139275
11.18051336436219
11.18428603584406
11.18829113819401
11.19263731366627
11.197429516128693
11.202763393165283
11.208716416270477
11.215334032794782
11.222609034733704
11.230451865974658
11.23865129841433
11.246830191407595
11.254418360428366
11.260681732700732
11.264848014844114
11.266313294969757
13.062629571641459
13.063306135101813
13.065250589061693
13.068233515697521
13.071946225905815
13.076073913191337
13.080349602842148
13.08457867665442
13.088639606648279
13.092472199067297
13.09606280144379
13.099430964796277
13.102619065887016
13.105684845939612
13.108696185575642
13.11172744643402
13.114856754672077
13.11816356343036
13.121725907565239
13.125616700910502
13.129898326377232
13.134614684612941
13.13977965534802
13.145361310959371
13.151261654465841
13.157294137958827
13.163165956997611
13.168478675172773
13.172764354592886
13.175565022960681
13.176540666501252
15.00136270583242
15.001793779977106
15.003040558003104
15.004975914278155
15.00742328638365
15.010194162918244
15.013119274584898
15.016066615327418
15.018946725347872
15.021709268262875
15.024335848444352
15.026832182528407
15.02922129723806
15.031538236100063
15.033826096603384
15.036133075677515
15.038510146248859
15.041008911423223
15.043679223447462
15.046566113394324
15.049705534961637
15.053118433544139
15.056802630682164
15.06072251748514
15.064797149206573
15.068889235269369
15.072799868219036
15.076276009445007
15.079037027009385
15.080820607812331
15.081438096686375
16.9339919512842
16.934224204077847
16.93489925115015
16.935957059942027
16.937312561287293
16.938872241562017
16.940548916322097
16.94227137391928
16.943988413683286
16.94566847986259
16.947296937507215
16.948872502161564
16.950403822771573
16.951906634154543
16.953401490961106
16.95491197747145
16.956463228004456
16.958080525764924
16.95978776835039
16.961605566878625
16.963548735770562
16.96562296487621
16.96782049603583
16.970114979685263
16.97245604808955
16.974765096854018
16.976934647591772
16.978834146126665
16.98032416731525
16.98127815045019
16.98160689200053
18.86202662415476
18.86208130516971
18.862242679058937
18.86250318033215
18.86285153782873
18.863274376138794
18.863757845273476
18.864288943780334
18.864856410947812
18.865451151951838
18.866066322231955
18.866697158837606
18.86734067392898
18.86799529147013
18.86866045242708
18.86933620971121
18.870022825286643
18.870720354196656
18.871428210800374
18.872144709056744
18.872866573540094
18.873588436750644
18.874302339191768
18.874997322727108
18.87565920087524
18.876270681627403
18.876812013047598
18.877262286394522
18.87760140098778
18.87781246115526
18.877884144831626
18.96946144576785
18.969507663419748
18.969644453650783
18.969866492499172
18.970165716713698
18.970532324794707
18.9709558493263
18.971426090525092
18.97193381945493
18.972471186233502
18.973031891630086
18.973611152183544
18.974205530903195
18.974812693255423
18.975431109386253
18.976059726388222
18.97669762958735
18.977343687320904
18.97799618404057
18.97865244384483
18.979308451254628
18.979958492455765
18.980594837529196
18.981207542017003
18.981784422279677
18.982311315927806
18.982772707479523
18.983152759627227
18.983436705140313
18.983612424438817
18.98367192838946
19.07664060474002
19.076680297442486
19.076798031062538
19.07698993711848
19.077250078804823
19.077571097833196
19.077944936081785
19.07836349684758
19.07881918432556
19.079305255727743
19.079816013740285
19.080346839191662
19.080894107159438
19.08145502802647
19.08202742747951
19.082609487556176
19.08319946995715
19.083795421941616
19.08439487552603
19.084994548335043
19.085590058136106
19.086175676025636
19.086744136508948
19.08728656729804
19.087792568631638
19.088250510166965
19.088648076696494
19.08897306273362
19.08921436374931
19.08936303867562
19.089413270278346
19.18358127608356
19.183615831129103
19.183718492872856
19.18388635855305
19.184114925121293
19.184398521656743
19.184730808090006
19.18510525011084
19.18551553105541
19.185955842612
19.18642106879164
19.18690684855195
19.187409542470427
19.187926131706064
19.188454056901556
19.188991015936022
19.189534741541298
19.190082762190947
19.19063216002775
19.191179337374013
19.1917198058063
19.192248021410165
19.192757280068815
19.19323972156206
19.193686454823744
19.19408784545519
19.194433971806163
19.194715234366583
19.194923072280865
19.195050698457134
19.195093743523557
19.290297868119282
19.290328313944734
19.29041887532138
19.290567297141788
19.290770050304946
19.291022632434355
19.291319924476753
19.29165654038237
19.29202714548425
19.292426693996607
19.2928505945955
19.293294783398235
19.293755719201048
19.294230320280167
19.294715845702665
19.295209736824063
19.295709438670706
19.296212206020254
19.296714909113206
19.297213851770117
19.297704616025374
19.298181954367692
19.298639739129307
19.2990710067563
19.29946809820084
19.29982292043748
19.30012732346918
19.30037357316305
19.30055488226934
19.300665936423478
19.30070334331949
19.396802726011412
19.396829854166718
19.396910613180804
19.397043179490776
19.39722467995243
19.39745141218556
19.397719111938173
19.398023221201438
19.398359141896616
19.39872243285777
19.39910895676508
19.399514954460166
19.3999370554522
19.40037223819832
19.400817740078324
19.401270930096935
19.401729162417116
19.402189616090695
19.40264913605716
19.403104088375684
19.403550243168887
19.403982703799755
19.40439588850368
19.40478359420961
19.4051391373826
19.405455587537872
19.40572608254255
19.40594420587973
19.406104395586016
19.406202338183288
19.4062352982257
19.49664911477618
19.496673254895512
19.496745158708965
19.49686331638167
19.497025337101906
19.497228117108204
19.497468047299648
19.497741224844265
19.49804365934506
19.4983714374956
19.498720851843338
19.499088471463683
19.499471159880795
19.499866050110167
19.50027047496225
19.500681863466983
19.50109761973639
19.50151498961298
19.501930929529042
19.50234198997812
19.50274422595492
19.5031331503882
19.503503734372238
19.503850477998164
19.504167543308107
19.50444895953217
19.504688887975185
19.504881928299262
19.505023441873973
19.50510985671331
19.505138918561617
19.583758132256587
19.583779317855715
19.583842448055353
19.583946273494156
19.584088808087774
19.584267458522202
19.584479186549405
19.584720676284576
19.58498850091429
19.585279258444352
19.585589681626264
19.585916701586612
19.586257468483225
19.586609336531595
19.58696981056711
19.58733646306552
19.58770683589984
19.588078331686027
19.588448107808222
19.588812984313392
19.589169376475088
19.589513265512043
19.58984020945106
19.590145413200858
19.590423847997716
19.59067042704711
19.590880224904552
19.59104872475907
19.591172074386044
19.591247323652627
19.59127261772217
19.658853388778404
19.658871727932482
19.658926394244656
19.659016357723335
19.659139975927708
19.659295094307417
19.659479173393482
19.65968942092125
19.659922925839545
19.660176768906553
19.6604481146901
19.66073426682715
19.661032688709692
19.66134099518374
19.661656912018103
19.661978210394324
19.66230262862923
19.66262778527103
19.6629510950031
19.663269697045557
19.66358040517597
19.66387969048624
19.664163697595278
19.66442830960696
19.664669251837502
19.664882239090886
19.66506315513159
19.665208251095
19.665314347794006
19.665379021125677
19.66540075149232
19.722827927789734
19.72284359281963
19.722890300449734
19.72296720644538
19.723072961168167
19.72320578743627
19.72336358013046
19.723544010193645
19.723744631629813
19.723962970634638
19.72419660135636
19.72444319265261
19.72470052734407
19.724966498299917
19.72523907806974
19.725516267900268
19.72579603638542
19.726076251127694
19.726354613109475
19.726628601910093
19.72689543927134
19.727152080028524
19.727395230295247
19.72762140516467
19.727827016531876
19.72800849453253
19.728162432730013
19.72828574621351
19.728375830945378
19.72843070839084
19.728449141232037
19.776685124853543
19.776698337066414
19.77673773998366
19.77680264647274
19.776891955716497
19.777004213538095
19.77713769016351
19.777290461680778
19.777460494843766
19.777645718170795
19.777844083474466
19.77805360463554
19.77827237473148
19.778498564933948
19.77873040206849
19.77896612949578
19.779203959777966
19.779442021786554
19.77967831028838
19.77991064467398
19.780136642870943
19.780353717655515
19.7805590947511
19.780749862536545
19.780923044922485
19.781075700057357
19.781205036551075
19.781308538517166
19.781384090463817
19.781430089784344
19.7814455362429
19.82148269381334
19.821493706872914
19.82152655742233
19.8215806903982
19.821655214937913
19.821748950954913
19.8218604895674
19.82198825652302
19.822130578897152
19.8222857412598
19.822452035045224
19.822627790188356
19.822811389899986
19.823001271297684
19.823195909081566
19.823393785942066
19.82359335659178
19.823793007444575
19.823991018474036
19.824185532601646
19.824374537395094
19.82455586477994
19.824727207888024
19.824886162892923
19.825030288493373
19.82515718513877
19.82526458715474
19.825350460887343
19.825413102018288
19.82545122267795
19.82546402042404
19.858282968284914
19.858292052587746
19.858319154357503
19.858363828496195
19.858425359475206
19.858502797130313
19.85859500336967
19.85870070124483
19.858818527016798
19.858947074131805
19.85908493241861
19.85923071356209
19.859383063568963
19.859540664400964
19.85970222230983
19.859866445767807
19.86003201853907
19.86019756938726
19.86036164364406
19.860522680863276
19.86067900228473
19.86082881257263
19.86097021484411
19.86110124524377
19.86121992083642
19.86132430250467
19.861412567319
19.861483085000387
19.86153449328788
19.861565765060874
19.861576261288327
19.888110260916726
19.888117690453313
19.88813985871351
19.88817641101528
19.888226776337994
19.888290194705863
19.888365753105063
19.888452423227285
19.888549101844898
19.888654644978576
19.888767898750444
19.888887719683584
19.88901298505298
19.889142595035896
19.889275464545634
19.889410507003163
19.889546614465235
19.889682635180716
19.889817352701662
19.889949469837834
19.890077600321128
19.89020027164474
19.89031593808629
19.89042300888682
19.890519886393403
19.890605015547344
19.890676940302683
19.890734362811028
19.89077620146807
19.89080164238654
19.890810179871508
19.911917828555737
19.911923870909362
19.91194190251583
19.911971641870615
19.91201263513883
19.91206427703373
19.91212583833621
19.91219649480358
19.912275358334814
19.912361503374658
19.912453991056832
19.912551885268392
19.912654261156284
19.912760207484958
19.912868821054932
19.91297919493022
19.913090403971257
19.91320148841742
19.913311438747865
19.913419184354506
19.913523588212104
19.913623450219347
19.9137175182705
19.913804511005413
19.91388314796073
19.91395218826714
19.914010474401948
19.914056977795163
19.914090843366168
19.914111428867887
19.91411833573938
19.93056201961516
19.93056692933619
19.930581582773172
19.930605756457847
19.930639089643524
19.93068110022489
19.930731205821953
19.930788745910228
19.9308530058602
19.93092323731637
19.93099867706352
19.93107855971464
19.931162124673484
19.931248618514218
19.93133729127365
19.931427388009894
19.931518138389198
19.931608744798844
19.93169837150167
19.93178613677391
19.931871109683104
19.931952313566857
19.93202873534937
19.932099343839287
19.93216311350327
19.932219054675546
19.93226624745176
19.932303876812913
19.93233126679398
19.932347910566474
19.93235349397038
19.944784846038026
19.944788861158322
19.944800845998582
19.94482062185023
19.944847899854185
19.94488229322344
19.944923333508044
19.94497048764634
19.945023176629007
19.94508079132303
19.945142707305422
19.945208294942585
19.945276925114083
19.94534797151677
19.945420808283075
19.94549480396804
19.945569314098677
19.945643672605204
19.94571718410108
19.94578911850372
19.94585870925482
19.94592515673875
19.945987636119273
19.946045312121075
19.94609735787427
19.946142978637056
19.94618143821822
19.946212086208323
19.94623438437757
19.946247929843967
19.94625247315575
19.95520214733512
19.955205488660763
19.955215463348196
19.95523192576664
19.955254640238042
19.955283290603063
19.95531749301097
19.955356809307627
19.95540076180113
19.95544884577791
19.9555005413821
19.955555321767662
19.95561265787955
19.955672020646823
19.955732879506737
19.955794698097264
19.955856928891286
19.955919006967726
19.955980344483713
19.956040327011817
19.95609831271465
19.956153635619557
19.956205612289857
19.956253553964093
19.956296781758443
19.956334645637433
19.956366545399316
19.956391952191954
19.956410429303762
19.956421650357875
19.95642541348313
19.962296685095687
19.962299557764705
19.962308134180162
19.96232229139165
19.962341830214555
19.962366483013582
19.96239592415486
19.96242978092992
19.96246764568759
19.962509086114064
19.96255365510103
19.96260089757804
19.9626503546339
19.96270156560441
19.962754067177894
19.96280739020855
19.962861055723153
19.962914570234915
19.962967421654774
19.963019076741947
19.96306898087358
19.96311656116948
19.96316123232804
19.963202406933203
19.963239508162474
19.96327198552381
19.963299332158726
19.963321102502142
19.963336929299885
19.963346538463018
19.96334976061653
19.966414704005288
19.966417300764334
19.966425053937332
19.966437853798773
19.966455522454613
19.96647782060181
19.966504456635242
19.96653509615356
19.966569372571506
19.966606896108658
19.966647262491396
19.966690059016397
19.966734868282206
19.96678127020398
19.96682884144214
19.966877152849626
19.966925766255404
19.966974230653125
19.96702207892552
19.967068825918496
19.967113968534083
19.967156988747586
19.96719735894251
19.96723455114172
19.967268048262607
19.967297357978776
19.96732202789469
19.967341660981997
19.967355930425043
19.967364592555366
19.967367496894873
19.96776424383153
19.967766749524856
19.967774230974484
19.967786582798826
19.967803634098896
19.967825154884153
19.967850864740385
19.967880441873042
19.96791353322294
19.967949763033175
19.96798874116907
19.968030068929135
19.968073342647987
19.9681181556851
19.968164097956876
19.968210753588828
19.96825769795031
19.968304494126354
19.968350689904582
19.968395816050005
19.96843938650012
19.96848090134338
19.968519851987402
19.968555730035362
19.96858803806448
19.96861630287354
19.968640089961482
19.96865901823766
19.968672774158502
19.96868112403609
19.968683923590685
