# vtk DataFile Version 2.0
Unstructured Grid Example
ASCII
DATASET UNSTRUCTURED_GRID

POINTS 961 float
0.400000004 0.01999999956 0
0.3866666556 0.01999999956 0
0.3733333348 0.01999999956 0
0.3600000144 0.01999999956 0
0.346666664 0.01999999956 0
0.3333333432 0.01999999956 0
0.3199999928 0.01999999956 0
0.3066666724 0.01999999956 0
0.293333322 0.01999999956 0
0.2800000012 0.01999999956 0
0.2666666804 0.01999999956 0
0.25333333 0.01999999956 0
0.2399999948 0.01999999956 0
0.226666674 0.01999999956 0
0.2133333384 0.01999999956 0
0.2000000028 0.01999999956 0
0.1866666676 0.01999999956 0
0.173333332 0.01999999956 0
0.1599999964 0.01999999956 0
0.1466666608 0.01999999956 0
0.1333333404 0.01999999956 0
0.1199999972 0.01999999956 0
0.1066666692 0.01999999956 0
0.0933333336 0.01999999956 0
0.0799999984 0.01999999956 0
0.06666667 0.01999999956 0
0.0533333348 0.01999999956 0
0.03999999912 0.01999999956 0
0.02666666732 0.01999999956 0
0.01333333364 0.01999999956 0
0.0 0.01999999956 0
0.400000004 0.00666666684 0
0.3866666556 0.00666666684 0
0.3733333348 0.00666666684 0
0.3600000144 0.00666666684 0
0.346666664 0.00666666684 0
0.3333333432 0.00666666684 0
0.3199999928 0.00666666684 0
0.3066666724 0.00666666684 0
0.293333322 0.00666666684 0
0.2800000012 0.00666666684 0
0.2666666804 0.00666666684 0
0.25333333 0.00666666684 0
0.2399999948 0.00666666684 0
0.226666674 0.00666666684 0
0.2133333384 0.00666666684 0
0.2000000028 0.00666666684 0
0.1866666676 0.00666666684 0
0.173333332 0.00666666684 0
0.1599999964 0.00666666684 0
0.1466666608 0.00666666684 0
0.1333333404 0.00666666684 0
0.1199999972 0.00666666684 0
0.1066666692 0.00666666684 0
0.0933333336 0.00666666684 0
0.0799999984 0.00666666684 0
0.06666667 0.00666666684 0
0.0533333348 0.00666666684 0
0.03999999912 0.00666666684 0
0.02666666732 0.00666666684 0
0.01333333364 0.00666666684 0
0.0 0.00666666684 0
0.400000004 -0.00666666684 0
0.3866666556 -0.00666666684 0
0.3733333348 -0.00666666684 0
0.3600000144 -0.00666666684 0
0.346666664 -0.00666666684 0
0.3333333432 -0.00666666684 0
0.3199999928 -0.00666666684 0
0.3066666724 -0.00666666684 0
0.293333322 -0.00666666684 0
0.2800000012 -0.00666666684 0
0.2666666804 -0.00666666684 0
0.25333333 -0.00666666684 0
0.2399999948 -0.00666666684 0
0.226666674 -0.00666666684 0
0.2133333384 -0.00666666684 0
0.2000000028 -0.00666666684 0
0.1866666676 -0.00666666684 0
0.173333332 -0.00666666684 0
0.1599999964 -0.00666666684 0
0.1466666608 -0.00666666684 0
0.1333333404 -0.00666666684 0
0.1199999972 -0.00666666684 0
0.1066666692 -0.00666666684 0
0.0933333336 -0.00666666684 0
0.0799999984 -0.00666666684 0
0.06666667 -0.00666666684 0
0.0533333348 -0.00666666684 0
0.03999999912 -0.00666666684 0
0.02666666732 -0.00666666684 0
0.01333333364 -0.00666666684 0
0.0 -0.00666666684 0
0.400000004 -0.01999999956 0
0.3866666556 -0.01999999956 0
0.3733333348 -0.01999999956 0
0.3600000144 -0.01999999956 0
0.346666664 -0.01999999956 0
0.3333333432 -0.01999999956 0
0.3199999928 -0.01999999956 0
0.3066666724 -0.01999999956 0
0.293333322 -0.01999999956 0
0.2800000012 -0.01999999956 0
0.2666666804 -0.01999999956 0
0.25333333 -0.01999999956 0
0.2399999948 -0.01999999956 0
0.226666674 -0.01999999956 0
0.2133333384 -0.01999999956 0
0.2000000028 -0.01999999956 0
0.1866666676 -0.01999999956 0
0.173333332 -0.01999999956 0
0.1599999964 -0.01999999956 0
0.1466666608 -0.01999999956 0
0.1333333404 -0.01999999956 0
0.1199999972 -0.01999999956 0
0.1066666692 -0.01999999956 0
0.0933333336 -0.01999999956 0
0.0799999984 -0.01999999956 0
0.06666667 -0.01999999956 0
0.0533333348 -0.01999999956 0
0.03999999912 -0.01999999956 0
0.02666666732 -0.01999999956 0
0.01333333364 -0.01999999956 0
0.0 -0.01999999956 0
0.400000004 -0.03333333508 0
0.3866666556 -0.03333333508 0
0.3733333348 -0.03333333508 0
0.3600000144 -0.03333333508 0
0.346666664 -0.03333333508 0
0.3333333432 -0.03333333508 0
0.3199999928 -0.03333333508 0
0.3066666724 -0.03333333508 0
0.293333322 -0.03333333508 0
0.2800000012 -0.03333333508 0
0.2666666804 -0.03333333508 0
0.25333333 -0.03333333508 0
0.2399999948 -0.03333333508 0
0.226666674 -0.03333333508 0
0.2133333384 -0.03333333508 0
0.2000000028 -0.03333333508 0
0.1866666676 -0.03333333508 0
0.173333332 -0.03333333508 0
0.1599999964 -0.03333333508 0
0.1466666608 -0.03333333508 0
0.1333333404 -0.03333333508 0
0.1199999972 -0.03333333508 0
0.1066666692 -0.03333333508 0
0.0933333336 -0.03333333508 0
0.0799999984 -0.03333333508 0
0.06666667 -0.03333333508 0
0.0533333348 -0.03333333508 0
0.03999999912 -0.03333333508 0
0.02666666732 -0.03333333508 0
0.01333333364 -0.03333333508 0
0.0 -0.03333333508 0
0.400000004 -0.0466666668 0
0.3866666556 -0.0466666668 0
0.3733333348 -0.0466666668 0
0.3600000144 -0.0466666668 0
0.346666664 -0.0466666668 0
0.3333333432 -0.0466666668 0
0.3199999928 -0.0466666668 0
0.3066666724 -0.0466666668 0
0.293333322 -0.0466666668 0
0.2800000012 -0.0466666668 0
0.2666666804 -0.0466666668 0
0.25333333 -0.0466666668 0
0.2399999948 -0.0466666668 0
0.226666674 -0.0466666668 0
0.2133333384 -0.0466666668 0
0.2000000028 -0.0466666668 0
0.1866666676 -0.0466666668 0
0.173333332 -0.0466666668 0
0.1599999964 -0.0466666668 0
0.1466666608 -0.0466666668 0
0.1333333404 -0.0466666668 0
0.1199999972 -0.0466666668 0
0.1066666692 -0.0466666668 0
0.0933333336 -0.0466666668 0
0.0799999984 -0.0466666668 0
0.06666667 -0.0466666668 0
0.0533333348 -0.0466666668 0
0.03999999912 -0.0466666668 0
0.02666666732 -0.0466666668 0
0.01333333364 -0.0466666668 0
0.0 -0.0466666668 0
0.400000004 -0.0599999988 0
0.3866666556 -0.0599999988 0
0.3733333348 -0.0599999988 0
0.3600000144 -0.0599999988 0
0.346666664 -0.0599999988 0
0.3333333432 -0.0599999988 0
0.3199999928 -0.0599999988 0
0.3066666724 -0.0599999988 0
0.293333322 -0.0599999988 0
0.2800000012 -0.0599999988 0
0.2666666804 -0.0599999988 0
0.25333333 -0.0599999988 0
0.2399999948 -0.0599999988 0
0.226666674 -0.0599999988 0
0.2133333384 -0.0599999988 0
0.2000000028 -0.0599999988 0
0.1866666676 -0.0599999988 0
0.173333332 -0.0599999988 0
0.1599999964 -0.0599999988 0
0.1466666608 -0.0599999988 0
0.1333333404 -0.0599999988 0
0.1199999972 -0.0599999988 0
0.1066666692 -0.0599999988 0
0.0933333336 -0.0599999988 0
0.0799999984 -0.0599999988 0
0.06666667 -0.0599999988 0
0.0533333348 -0.0599999988 0
0.03999999912 -0.0599999988 0
0.02666666732 -0.0599999988 0
0.01333333364 -0.0599999988 0
0.0 -0.0599999988 0
0.400000004 -0.0733333304 0
0.3866666556 -0.0733333304 0
0.3733333348 -0.0733333304 0
0.3600000144 -0.0733333304 0
0.346666664 -0.0733333304 0
0.3333333432 -0.0733333304 0
0.3199999928 -0.0733333304 0
0.3066666724 -0.0733333304 0
0.293333322 -0.0733333304 0
0.2800000012 -0.0733333304 0
0.2666666804 -0.0733333304 0
0.25333333 -0.0733333304 0
0.2399999948 -0.0733333304 0
0.226666674 -0.0733333304 0
0.2133333384 -0.0733333304 0
0.2000000028 -0.0733333304 0
0.1866666676 -0.0733333304 0
0.173333332 -0.0733333304 0
0.1599999964 -0.0733333304 0
0.1466666608 -0.0733333304 0
0.1333333404 -0.0733333304 0
0.1199999972 -0.0733333304 0
0.1066666692 -0.0733333304 0
0.0933333336 -0.0733333304 0
0.0799999984 -0.0733333304 0
0.06666667 -0.0733333304 0
0.0533333348 -0.0733333304 0
0.03999999912 -0.0733333304 0
0.02666666732 -0.0733333304 0
0.01333333364 -0.0733333304 0
0.0 -0.0733333304 0
0.400000004 -0.086666666 0
0.3866666556 -0.086666666 0
0.3733333348 -0.086666666 0
0.3600000144 -0.086666666 0
0.346666664 -0.086666666 0
0.3333333432 -0.086666666 0
0.3199999928 -0.086666666 0
0.3066666724 -0.086666666 0
0.293333322 -0.086666666 0
0.2800000012 -0.086666666 0
0.2666666804 -0.086666666 0
0.25333333 -0.086666666 0
0.2399999948 -0.086666666 0
0.226666674 -0.086666666 0
0.2133333384 -0.086666666 0
0.2000000028 -0.086666666 0
0.1866666676 -0.086666666 0
0.173333332 -0.086666666 0
0.1599999964 -0.086666666 0
0.1466666608 -0.086666666 0
0.1333333404 -0.086666666 0
0.1199999972 -0.086666666 0
0.1066666692 -0.086666666 0
0.0933333336 -0.086666666 0
0.0799999984 -0.086666666 0
0.06666667 -0.086666666 0
0.0533333348 -0.086666666 0
0.03999999912 -0.086666666 0
0.02666666732 -0.086666666 0
0.01333333364 -0.086666666 0
0.0 -0.086666666 0
0.400000004 -0.1000000016 0
0.3866666556 -0.1000000016 0
0.3733333348 -0.1000000016 0
0.3600000144 -0.1000000016 0
0.346666664 -0.1000000016 0
0.3333333432 -0.1000000016 0
0.3199999928 -0.1000000016 0
0.3066666724 -0.1000000016 0
0.293333322 -0.1000000016 0
0.2800000012 -0.1000000016 0
0.2666666804 -0.1000000016 0
0.25333333 -0.1000000016 0
0.2399999948 -0.1000000016 0
0.226666674 -0.1000000016 0
0.2133333384 -0.1000000016 0
0.2000000028 -0.1000000016 0
0.1866666676 -0.1000000016 0
0.173333332 -0.1000000016 0
0.1599999964 -0.1000000016 0
0.1466666608 -0.1000000016 0
0.1333333404 -0.1000000016 0
0.1199999972 -0.1000000016 0
0.1066666692 -0.1000000016 0
0.0933333336 -0.1000000016 0
0.0799999984 -0.1000000016 0
0.06666667 -0.1000000016 0
0.0533333348 -0.1000000016 0
0.03999999912 -0.1000000016 0
0.02666666732 -0.1000000016 0
0.01333333364 -0.1000000016 0
0.0 -0.1000000016 0
0.400000004 -0.1133333372 0
0.3866666556 -0.1133333372 0
0.3733333348 -0.1133333372 0
0.3600000144 -0.1133333372 0
0.346666664 -0.1133333372 0
0.3333333432 -0.1133333372 0
0.3199999928 -0.1133333372 0
0.3066666724 -0.1133333372 0
0.293333322 -0.1133333372 0
0.2800000012 -0.1133333372 0
0.2666666804 -0.1133333372 0
0.25333333 -0.1133333372 0
0.2399999948 -0.1133333372 0
0.226666674 -0.1133333372 0
0.2133333384 -0.1133333372 0
0.2000000028 -0.1133333372 0
0.1866666676 -0.1133333372 0
0.173333332 -0.1133333372 0
0.1599999964 -0.1133333372 0
0.1466666608 -0.1133333372 0
0.1333333404 -0.1133333372 0
0.1199999972 -0.1133333372 0
0.1066666692 -0.1133333372 0
0.0933333336 -0.1133333372 0
0.0799999984 -0.1133333372 0
0.06666667 -0.1133333372 0
0.0533333348 -0.1133333372 0
0.03999999912 -0.1133333372 0
0.02666666732 -0.1133333372 0
0.01333333364 -0.1133333372 0
0.0 -0.1133333372 0
0.400000004 -0.1266666652 0
0.3866666556 -0.1266666652 0
0.3733333348 -0.1266666652 0
[...]
POINT_DATA 961
SCALARS Temp float 1
LOOKUP_TABLE default
0.7122500661035449
0.740697551478747
0.7611124838316918
0.7759561469310242
0.7868322274086125
0.7948404088815839
0.8007635974403494
0.8051652987242367
0.8084556548522543
0.81093518167746
0.8128266857771513
0.8142973957787981
0.8154751094443761
0.8164607603740276
0.8173377945136951
0.8181796083792778
0.8190563603685016
0.820041232118891
0.8212170064114258
0.8226835924185751
0.8245671903441509
0.8270323571282392
0.8302973866242045
0.8346561622131048
0.8405074943805114
0.8483967559682515
0.8590752002434042
0.8735867420009312
0.8934001425213635
0.9206470000496858
0.9587085661763394
0.7517664744949574
0.7796612418572436
0.7998569023181956
0.8146193126966147
0.8254580449888806
0.833450893726128
0.83936946157618
0.8437718744959805
0.8470654635361505
0.8495492818748245
0.8514453851268305
0.852920648662662
0.8541027452701401
0.8550926058855544
0.8559737417669875
0.856819654754927
0.857700623164255
0.8586899479164251
0.859870512453716
0.8613422815777262
0.8632314242453949
0.8657022991929834
0.8689727140303347
0.873335533860203
0.8791875975342439
0.8870705219144654
0.8977283429991638
0.9121900569561403
0.9318933639604485
0.958862422966305
0.9960290681560169
2.6018879323879487
2.6060321259993144
2.61758210674627
2.628234633658786
2.6370433795973103
2.6440518282012384
2.649539204710805
2.6538069445389274
2.6571224235484943
2.6597075548718174
2.6617418756707227
2.6633697390363755
2.664708108415047
2.6658538476463534
2.6668902086839696
2.6678926325856507
2.6689341445824586
2.6700906452081306
2.6714463833868365
2.6730999515934526
2.675171137854246
2.677808861465687
2.681200329322083
2.6855810529639177
2.6912441623502517
2.6985442410279994
2.707881951423489
2.7196285498620183
2.733841236182081
2.7492476206083936
2.75477867769603
4.428952235950746
4.431213770587098
4.4367644298080275
4.443700147577588
4.4502761881191875
4.455977382838609
4.460720022596078
4.464583903569847
4.46770099718794
4.4702103888298526
4.472241097741904
4.47390694358665
4.475306764154801
4.476526935519268
4.477644786873395
4.478732345334709
4.47986021321247
4.481101520669539
4.482535985514821
4.484254090924619
4.486361292114161
4.488981958877595
4.492262190731634
4.496369747283449
4.501486904219626
4.5077872000757955
4.5153751680542635
4.524137395305407
4.533384162045335
4.540786509800343
4.543802469509606
6.25062042551719
6.25182395517264
6.255076583072066
6.259480509294932
6.2641702818559075
6.268576744605431
6.272465639253394
6.275781652728333
6.278556665569885
6.280860035653362
6.282773519560575
6.28437934310414
6.285755330765563
6.286973785259001
6.288102307399729
6.289205632766645
6.29034799265088
6.291595695309588
6.293019731116418
6.294698171612208
6.29671799010276
6.299175642462942
6.30217509425678
6.305820997860971
6.31020249510466
6.315359449743528
6.321215976007524
6.3274576548865475
6.333323607287522
6.337657859926643
6.33926190803691
8.069032595405861
8.069765594284256
8.07179377602267
8.074697540849767
8.077991255030751
8.0812875248244
8.084349790541165
8.087071312864584
8.089427424392742
8.091439492432954
8.093152091260905
8.094619738770692
8.095899857312538
8.097049569897322
8.098124754737201
8.099180413952798
8.100271763197311
8.101455613819601
8.102791717879043
8.104343708941876
8.106179129227552
8.108367768024374
8.110976992386737
8.114062082910898
8.117648293075657
8.121700129799581
8.126073158008808
8.130450086543807
8.134312746147875
8.13701222192777
8.137988076171597
9.885252902108185
9.885719697417798
9.887035697465599
9.888981062705815
9.891280979176877
9.893684445056103
9.896009426805792
9.898149224313888
9.90005775902291
9.901729776792571
9.903184758930522
9.904455781089474
9.90558259758329
9.90660779303917
9.907574959532893
9.908528152655983
9.909512083458067
9.910572606378324
9.911757136162521
9.91311459240984
9.914694359112367
9.916543562154363
9.91870162911318
9.92119084915825
9.924001311155482
9.927069228667103
9.930250444952199
9.933300642664005
9.935883843095546
9.937632587328533
9.938253083614772
11.69975046905002
11.700051078180008
11.700907939240432
11.702201073411231
11.703772010742696
11.705464151651796
11.707151150918635
11.708747995994361
11.710208667301282
11.711517458422353
11.712679479854451
11.713712848065146
11.71464316853316
11.71550005803856
11.71631518231661
11.717121327098942
11.71795209060228
11.71884182530695
11.719825500737418
11.720938131933575
11.722213348085862
11.723680581332331
11.725360207879431
11.727256034214975
11.729344729283435
11.731562999984167
11.733795950743477
11.735873842950282
11.737586871923034
11.738722981316615
11.739121722716495
13.51275830773897
13.51294378108092
13.513476327733844
13.514291102069254
13.515299498569199
13.516409432343268
13.5175415720065
13.518637860399108
13.519662869552434
13.520600605216185
13.521449673007446
13.522218597996563
13.52292213671305
13.52357872744869
13.524208893507911
13.524834344575662
13.525477515154098
13.52616127766749
13.526908589240147
13.527741812997244
13.52868141971845
13.529743745768563
13.53093745252512
13.532258509872044
13.533683855877563
13.535164844843333
13.536622945157374
13.537951466776203
13.539026924366722
13.539730654791382
13.539975877374488
15.32438996812978
15.32448688120747
15.324766687331145
15.325199369988118
15.32574302482936
15.326352697923522
15.326987989393066
15.327617661632672
15.328221103531241
15.328787479832204
15.329313773610036
15.329802607883455
15.330260370273642
15.330695818946193
15.331119137538872
15.331541340066881
15.331973902980025
15.332428486574592
15.332916616491001
15.333449186584014
15.334035632537832
15.334682626006966
15.335392148656851
15.336158947040692
15.336967579549675
15.337789752162365
15.338583165896605
15.339293427661968
15.339860196315655
15.340227304996134
15.3403545533473
17.134699888174048
17.134720252269098
17.13478009243153
17.134875882591057
17.13500243907325
17.135153736903863
17.135323715850426
17.135506904521044
17.135698801413284
17.135896014089873
17.136096230329187
17.136298082734758
17.136500969631932
17.13670487244943
17.136910182707098
17.13711754428527
17.137327709881752
17.137541399993502
17.13775915509692
17.137981170371326
17.13820710434273
17.138435860503606
17.13866534514877
17.138892235134037
17.13911179809859
17.139317850185844
17.139502945333053
17.139658877952566
17.139777518536356
17.139851885581322
17.139877235694765
17.235704321344148
17.235721117011355
17.235770655707547
17.235850526800643
17.235957122152435
17.236086135107644
17.236233080751532
17.236393732102876
17.23656442548934
17.23674221492096
17.236924908950154
17.23711101759436
17.237299649041432
17.237490386266096
17.237683155723182
17.237878096781184
17.23807543564924
17.238275357938974
17.23847787629832
17.238682688567412
17.238889024161058
17.239095483471125
17.23929987767101
17.239499099789285
17.23968905696642
17.239864718197907
17.240020324924885
17.24014979460546
17.240247305930055
17.24030799044991
17.240328599433912
17.336604278387917
17.336618403124486
17.336660184571173
17.336727925950562
17.336819050496615
17.336930415624064
17.337058654803077
17.337200481353698
17.337352922188927
17.33751345750583
17.33768008144417
17.337851292878135
17.338026040263458
17.33820364144038
17.33838368738219
17.338565938628744
17.338750220364357
17.33893631393318
17.339123845076628
17.339312168372516
17.339500249269065
17.339686550835687
17.339868932814277
17.340044588101435
17.340210034989532
17.340361198370893
17.3404936014466
17.340602675192034
17.340684167202262
17.340734596162747
17.340751672272443
17.437404821495758
17.437416897413748
17.43745269930398
17.437511000771586
17.437589916839404
17.437687106941027
17.43780000359031
17.43792602460252
17.4380627482408
17.438208029348626
17.438360063470387
17.438517398847928
17.43867891033332
17.43884374918602
17.439011274455275
17.439180973537056
17.439352378458757
17.439524977694937
17.439698126020527
17.439870954181686
17.440042281550156
17.440210539219184
17.440373709692025
17.440529302527754
17.440674375685337
17.440805622493755
17.440919532334544
17.44101262303536
17.441081727727866
17.441124298953746
17.4411386808954
17.538109752753886
17.538120223866414
17.53815132326888
17.538202142266663
17.538271269808995
17.538356926659848
17.53845712095299
17.538569797359468
17.538692967150176
17.53882480072033
17.538963686369467
17.53910825095651
17.53925735060577
17.539410040697533
17.53956552819622
17.539723112443536
17.539882120706988
17.540041839196448
17.540201443088193
17.540359928396597
17.540516049413053
17.540668268526776
17.5408147227561
17.540953221594712
17.541081280207877
17.541196199958957
17.541295197732797
17.54137557896985
17.541434940481903
17.541471377519994
17.54148366428244
17.63872194996954
17.638731141777214
17.63875848003081
17.6388032751885
17.6388644469189
17.63894061458087
17.639030204745236
17.639131556860967
17.63924301963953
17.639363023122343
17.639490129136377
17.63962305409952
17.639760668996807
17.639901982695665
17.640046109763915
17.640192227553282
17.640339528196606
17.64048716647783
17.640634207377744
17.64077957640569
17.640922016309656
17.641060055967078
17.64119199412829
17.641315909022353
17.64142969434169
17.641531128977014
17.641617978966636
17.641688126120602
17.64173971277675
17.64177128514651
17.641781915580804
17.736019462215502
17.73602761657032
17.736051896186417
17.736091765622117
17.73614637934182
17.736214643828824
17.736295293032228
17.736386963859523
17.736488267758304
17.7365978462013
17.736714412560918
17.73683677397122
17.73696383613335
17.737094595308424
17.737228117412236
17.73736350784516
17.737499876950622
17.737636301953707
17.737771789004828
17.737905238265714
17.73803541517868
17.738160932667007
17.738280245623557
17.738391666103517
17.738493397706062
17.738583593902497
17.738660437612594
17.73872223704449
17.73876753008073
17.738795185067563
17.738804485235253
17.826756931769133
17.8267642315662
17.826785985800253
17.82682176931529
17.826870905993037
17.82693251207917
17.82700554988608
17.827088882213587
17.827181325781368
17.827281693745054
17.827388829871893
17.82750162820604
17.827619040169584
17.82774007215332
17.82786377273439
17.827989212273067
17.828115459048238
17.82824155251948
17.828366476947654
17.828489137928756
17.828608344423476
17.828722800079014
17.828831104236116
17.82893176920266
17.829023251195643
17.829103998248492
17.829172512117275
17.829227420046347
17.829267550854333
17.829292006847282
17.829300223132282
17.910902540254387
17.910909128674202
17.910928776501475
17.91096113871275
17.91100566316041
17.911061621247473
17.911128146697084
17.91120427516286
17.911288984419606
17.911381226954028
17.911479957689046
17.91158415114212
17.91169280942993
17.911804963439867
17.911919665851457
17.912035978092216
17.912152954735884
17.912269625623658
17.912384978475288
17.91249794409682
17.91260738621815
17.912712098959666
17.91281081165204
17.912902206299016
17.912984944578906
17.913057706873317
17.91311924049033
17.913168413780582
17.913204272224775
17.913226090477288
17.91323341472475
17.988426731397645
17.98843272297906
17.988450600651014
17.988480078416593
17.988520696017247
17.98857184096543
17.988632776941504
17.988702672930614
17.98878063375935
17.988865725191907
17.98895699645407
17.98905349501701
17.989154274776343
17.98925839949203
17.98936493992648
17.989472966268572
17.989581538798795
17.98968969678569
17.989796447923357
17.989900759982447
17.99000155622152
17.99009771691917
17.990188086305597
17.99027148927115
17.99034675457515
17.990412746596782
17.990468403082563
17.990512776314308
17.99054507495228
17.990564702234458
17.990571286704565
18.059302165585358
18.059307653907222
18.059324036941714
18.05935107270878
18.05938836985653
18.05943540371898
18.05949153743716
18.059556043649444
18.059628127985782
18.05970694855396
18.059791634370956
18.05988129808063
18.059975043952907
18.060071972740445
18.060171181715173
18.060271761105454
18.060372789433043
18.06047332749321
18.060572412877445
18.060669056327757
18.060762241065454
18.060850926954963
18.06093405849915
18.061010580389727
18.06107945734795
18.061139700047242
18.061190394893426
18.06123073567532
18.0612600551869
18.061277853672976
18.06128382147036
18.12350370235156
18.123508765453465
18.123523884211984
18.12354884982326
18.12358332313468
18.12362684653054
18.123678859908072
18.12373871704799
18.123805703966777
18.123879054228368
18.12395796420397
18.124041604075426
18.124129125505025
18.124219667357803
18.124312357761696
18.12440631345528
18.12450063855428
18.124594422282648
18.12468673721964
18.12477663903227
18.124863168512842
18.124945357399007
18.125022236802526
18.125092851494248
18.125156276885733
18.125211640353438
18.125258144983228
18.125295094208965
18.12532191605211
18.125338184630426
18.1253436371104
18.18100878500631
18.181013489274477
18.18102754016674
18.181050754100447
18.1810828317892
18.181123367191997
18.18117185982695
18.18122772732798
18.181290320039448
18.181358933234506
18.181432819943712
18.181511200576878
18.18159327022256
18.181678204880548
18.181765164920446
18.181853296515982
18.181941732892454
18.18202959478309
18.182115991361098
18.182200022359932
18.18228078195114
18.182357365565927
18.182428878392503
18.18249444844328
18.182553241177818
18.18260447723614
18.18264745162293
18.18268155316919
18.182706283410877
18.18272127312452
18.18272629524058
18.231796731099088
18.231801134104163
18.231814287795817
18.23183602787485
18.231866085662624
18.231904094972375
18.231949601804004
18.23200207416081
18.23206091389769
18.232125466656775
18.232195032847535
18.232268876177727
18.232346230595926
18.23242630680726
18.232508296686284
18.23259137618881
18.232674708368304
18.232757445783005
18.232838733333566
18.232917712043914
18.232993524163895
18.23306532056143
18.23313226909058
18.233193566563493
18.23324845146639
18.233296218912507
18.233336236389906
18.233367959397466
18.233390946415888
18.23340487185859
18.233409536096396
18.27584970230853
18.275853854906252
18.275866262411775
18.27588677529158
18.27591514839188
18.275951046335276
18.27599405133975
18.276043671067093
18.276099348467657
18.276160470039407
18.27622637541426
18.276296365041254
18.276369706810843
18.27644564271177
18.276523393885036
18.276602164568096
18.276681146353514
18.276759521971073
18.276836469456587
18.276911167067098
18.276982799179464
18.27705056397692
18.27711368159442
18.27717140514863
18.277223031938497
18.277267916264
18.277305482595587
18.277335238386716
18.277356786193913
18.277369834036882
18.27737420334952
18.313151817590395
18.313155765515564
18.313167562834654
18.31318707126589
18.313214063640558
18.31324822825542
18.313289175351354
18.313336443554007
18.313389508264592
18.313447788698003
18.31351065642886
18.313577442426972
18.313647443412027
18.313719928565966
18.313794145009613
18.313869322456753
18.313944678330518
18.31401942249852
18.314092762354985
18.31416390849568
18.314232081119023
18.3142965178373
18.31435648157112
18.314411270798182
18.3144602295715
18.314502758719286
18.31453832709521
18.3145664823189
18.314586860823358
18.314599196346883
18.314603326396956
18.343689893283337
18.343693678379243
18.343704990082745
18.343723698558616
18.343749590177275
18.343782371134182
18.34382167298097
18.343867058070146
18.343918026904877
18.343974024300167
18.344034447166322
18.344098651060072
18.344165956321273
18.34423565479272
18.344307015568766
18.344379290128025
18.3444517180295
18.344523532294506
18.34459396510208
18.344662253960855
18.34472764841619
18.344789417889718
18.344846859334417
18.34489930685959
18.34494614084912
18.344986797956302
18.345020780948225
18.345047667945593
18.345067120981277
18.34507889315855
18.34508283405896
18.367453086071944
18.367456747268488
18.367467689358737
18.36748578864536
18.367510841359667
18.36754256677902
18.36758061210447
18.36762455721909
18.36767392131246
18.36772816843009
18.367786714715237
18.36784893461068
18.36791416682832
18.367981721054
18.368050883865404
18.368120924177774
18.368191099320143
18.368260660842918
18.36832886061255
18.36839495729797
18.368458223256255
18.368517952353194
18.368573467414848
18.368624129378777
18.368669345753393
18.36870857974598
18.368741359108423
18.36876728432111
18.368786036110432
18.36879738167948
18.368801179384246
18.384432814557567
18.384436388672757
18.384447070933746
18.384464741811943
18.384489204247622
18.38452018644231
18.38455734631076
18.3846002757931
18.384648507002982
18.38470151737576
18.38475873654928
18.384819552330345
18.384883316546663
18.38494935173069
18.38501695713724
18.385085414382964
18.3851539937582
18.3852219602992
18.38528858012877
18.385353127131136
18.38541488993553
18.385473179703183
18.385527337425593
18.385576742744174
18.3856208219606
18.385659056581495
18.385690991498866
18.385716242475535
18.385734502977108
18.385745549794503
18.38574924724167
18.394623097521187
18.394626619940162
18.394637147933118
18.394654564390834
18.394678676151738
18.39470921661181
18.394745849936967
18.39478817512374
18.394835731878032
18.394888005535588
18.394944433736583
18.395004412256252
18.39506730078695
18.395132429605535
18.39519910564292
18.39526661822828
18.395334245528336
18.395401260763485
18.395466938680812
18.395530562328315
18.395591430085805
18.395648863424455
18.39570221411024
18.39575087282761
18.39579427692866
18.395831918641942
18.395863352872038
18.395888204287093
18.39590617376156
18.395917043654286
18.39592068173588
18.398020252288887
18.39802375756655
18.398034234404548
18.3980515664869
18.398075561930796
18.39810595583784
18.398142414428946
18.39818453902398
18.39823187183316
18.39828390080396
18.39834006622858
18.39839976653002
18.39846236402117
18.398527191566064
18.39859355866536
18.398660757233618
18.398728068078874
18.398794767164258
18.39886013212264
18.39892344906179
18.398984019609234
18.399041168661373
18.399094251555063
18.39914266262624
18.399185842873578
18.399223288057556
18.399254556376086
18.399279275422813
18.399297148503706
18.399307959803625
18.399311578226257
