# vtk DataFile Version 2.0
Unstructured Grid Example
ASCII
DATASET UNSTRUCTURED_GRID

POINTS 961 float
0.100000001 0.00499999989 0
0.0966666639 0.00499999989 0
0.0933333337 0.00499999989 0
0.0900000036 0.00499999989 0
0.086666666 0.00499999989 0
0.0833333358 0.00499999989 0
0.0799999982 0.00499999989 0
0.0766666681 0.00499999989 0
0.0733333305 0.00499999989 0
0.0700000003 0.00499999989 0
0.0666666701 0.00499999989 0
0.0633333325 0.00499999989 0
0.0599999987 0.00499999989 0
0.0566666685 0.00499999989 0
0.0533333346 0.00499999989 0
0.0500000007 0.00499999989 0
0.0466666669 0.00499999989 0
0.043333333 0.00499999989 0
0.0399999991 0.00499999989 0
0.0366666652 0.00499999989 0
0.0333333351 0.00499999989 0
0.0299999993 0.00499999989 0
0.0266666673 0.00499999989 0
0.0233333334 0.00499999989 0
0.0199999996 0.00499999989 0
0.0166666675 0.00499999989 0
0.0133333337 0.00499999989 0
0.00999999978 0.00499999989 0
0.00666666683 0.00499999989 0
0.00333333341 0.00499999989 0
0.0 0.00499999989 0
0.100000001 0.00166666671 0
0.0966666639 0.00166666671 0
0.0933333337 0.00166666671 0
0.0900000036 0.00166666671 0
0.086666666 0.00166666671 0
0.0833333358 0.00166666671 0
0.0799999982 0.00166666671 0
0.0766666681 0.00166666671 0
0.0733333305 0.00166666671 0
0.0700000003 0.00166666671 0
0.0666666701 0.00166666671 0
0.0633333325 0.00166666671 0
0.0599999987 0.00166666671 0
0.0566666685 0.00166666671 0
0.0533333346 0.00166666671 0
0.0500000007 0.00166666671 0
0.0466666669 0.00166666671 0
0.043333333 0.00166666671 0
0.0399999991 0.00166666671 0
0.0366666652 0.00166666671 0
0.0333333351 0.00166666671 0
0.0299999993 0.00166666671 0
0.0266666673 0.00166666671 0
0.0233333334 0.00166666671 0
0.0199999996 0.00166666671 0
0.0166666675 0.00166666671 0
0.0133333337 0.00166666671 0
0.00999999978 0.00166666671 0
0.00666666683 0.00166666671 0
0.00333333341 0.00166666671 0
0.0 0.00166666671 0
0.100000001 -0.00166666671 0
0.0966666639 -0.00166666671 0
0.0933333337 -0.00166666671 0
0.0900000036 -0.00166666671 0
0.086666666 -0.00166666671 0
0.0833333358 -0.00166666671 0
0.0799999982 -0.00166666671 0
0.0766666681 -0.00166666671 0
0.0733333305 -0.00166666671 0
0.0700000003 -0.00166666671 0
0.0666666701 -0.00166666671 0
0.0633333325 -0.00166666671 0
0.0599999987 -0.00166666671 0
0.0566666685 -0.00166666671 0
0.0533333346 -0.00166666671 0
0.0500000007 -0.00166666671 0
0.0466666669 -0.00166666671 0
0.043333333 -0.00166666671 0
0.0399999991 -0.00166666671 0
0.0366666652 -0.00166666671 0
0.0333333351 -0.00166666671 0
0.0299999993 -0.00166666671 0
0.0266666673 -0.00166666671 0
0.0233333334 -0.00166666671 0
0.0199999996 -0.00166666671 0
0.0166666675 -0.00166666671 0
0.0133333337 -0.00166666671 0
0.00999999978 -0.00166666671 0
0.00666666683 -0.00166666671 0
0.00333333341 -0.00166666671 0
0.0 -0.00166666671 0
0.100000001 -0.00499999989 0
0.0966666639 -0.00499999989 0
0.0933333337 -0.00499999989 0
0.0900000036 -0.00499999989 0
0.086666666 -0.00499999989 0
0.0833333358 -0.00499999989 0
0.0799999982 -0.00499999989 0
0.0766666681 -0.00499999989 0
0.0733333305 -0.00499999989 0
0.0700000003 -0.00499999989 0
0.0666666701 -0.00499999989 0
0.0633333325 -0.00499999989 0
0.0599999987 -0.00499999989 0
0.0566666685 -0.00499999989 0
0.0533333346 -0.00499999989 0
0.0500000007 -0.00499999989 0
0.0466666669 -0.00499999989 0
0.043333333 -0.00499999989 0
0.0399999991 -0.00499999989 0
0.0366666652 -0.00499999989 0
0.0333333351 -0.00499999989 0
0.0299999993 -0.00499999989 0
0.0266666673 -0.00499999989 0
0.0233333334 -0.00499999989 0
0.0199999996 -0.00499999989 0
0.0166666675 -0.00499999989 0
0.0133333337 -0.00499999989 0
0.00999999978 -0.00499999989 0
0.00666666683 -0.00499999989 0
0.00333333341 -0.00499999989 0
0.0 -0.00499999989 0
0.100000001 -0.00833333377 0
0.0966666639 -0.00833333377 0
0.0933333337 -0.00833333377 0
0.0900000036 -0.00833333377 0
0.086666666 -0.00833333377 0
0.0833333358 -0.00833333377 0
0.0799999982 -0.00833333377 0
0.0766666681 -0.00833333377 0
0.0733333305 -0.00833333377 0
0.0700000003 -0.00833333377 0
0.0666666701 -0.00833333377 0
0.0633333325 -0.00833333377 0
0.0599999987 -0.00833333377 0
0.0566666685 -0.00833333377 0
0.0533333346 -0.00833333377 0
0.0500000007 -0.00833333377 0
0.0466666669 -0.00833333377 0
0.043333333 -0.00833333377 0
0.0399999991 -0.00833333377 0
0.0366666652 -0.00833333377 0
0.0333333351 -0.00833333377 0
0.0299999993 -0.00833333377 0
0.0266666673 -0.00833333377 0
0.0233333334 -0.00833333377 0
0.0199999996 -0.00833333377 0
0.0166666675 -0.00833333377 0
0.0133333337 -0.00833333377 0
0.00999999978 -0.00833333377 0
0.00666666683 -0.00833333377 0
0.00333333341 -0.00833333377 0
0.0 -0.00833333377 0
0.100000001 -0.0116666667 0
0.0966666639 -0.0116666667 0
0.0933333337 -0.0116666667 0
0.0900000036 -0.0116666667 0
0.086666666 -0.0116666667 0
0.0833333358 -0.0116666667 0
0.0799999982 -0.0116666667 0
0.0766666681 -0.0116666667 0
0.0733333305 -0.0116666667 0
0.0700000003 -0.0116666667 0
0.0666666701 -0.0116666667 0
0.0633333325 -0.0116666667 0
0.0599999987 -0.0116666667 0
0.0566666685 -0.0116666667 0
0.0533333346 -0.0116666667 0
0.0500000007 -0.0116666667 0
0.0466666669 -0.0116666667 0
0.043333333 -0.0116666667 0
0.0399999991 -0.0116666667 0
0.0366666652 -0.0116666667 0
0.0333333351 -0.0116666667 0
0.0299999993 -0.0116666667 0
0.0266666673 -0.0116666667 0
0.0233333334 -0.0116666667 0
0.0199999996 -0.0116666667 0
0.0166666675 -0.0116666667 0
0.0133333337 -0.0116666667 0
0.00999999978 -0.0116666667 0
0.00666666683 -0.0116666667 0
0.00333333341 -0.0116666667 0
0.0 -0.0116666667 0
0.100000001 -0.0149999997 0
0.0966666639 -0.0149999997 0
0.0933333337 -0.0149999997 0
0.0900000036 -0.0149999997 0
0.086666666 -0.0149999997 0
0.0833333358 -0.0149999997 0
0.0799999982 -0.0149999997 0
0.0766666681 -0.0149999997 0
0.0733333305 -0.0149999997 0
0.0700000003 -0.0149999997 0
0.0666666701 -0.0149999997 0
0.0633333325 -0.0149999997 0
0.0599999987 -0.0149999997 0
0.0566666685 -0.0149999997 0
0.0533333346 -0.0149999997 0
0.0500000007 -0.0149999997 0
0.0466666669 -0.0149999997 0
0.043333333 -0.0149999997 0
0.0399999991 -0.0149999997 0
0.0366666652 -0.0149999997 0
0.0333333351 -0.0149999997 0
0.0299999993 -0.0149999997 0
0.0266666673 -0.0149999997 0
0.0233333334 -0.0149999997 0
0.0199999996 -0.0149999997 0
0.0166666675 -0.0149999997 0
0.0133333337 -0.0149999997 0
0.00999999978 -0.0149999997 0
0.00666666683 -0.0149999997 0
0.00333333341 -0.0149999997 0
0.0 -0.0149999997 0
0.100000001 -0.0183333326 0
0.0966666639 -0.0183333326 0
0.0933333337 -0.0183333326 0
0.0900000036 -0.0183333326 0
0.086666666 -0.0183333326 0
0.0833333358 -0.0183333326 0
0.0799999982 -0.0183333326 0
0.0766666681 -0.0183333326 0
0.0733333305 -0.0183333326 0
0.0700000003 -0.0183333326 0
0.0666666701 -0.0183333326 0
0.0633333325 -0.0183333326 0
0.0599999987 -0.0183333326 0
0.0566666685 -0.0183333326 0
0.0533333346 -0.0183333326 0
0.0500000007 -0.0183333326 0
0.0466666669 -0.0183333326 0
0.043333333 -0.0183333326 0
0.0399999991 -0.0183333326 0
0.0366666652 -0.0183333326 0
0.0333333351 -0.0183333326 0
0.0299999993 -0.0183333326 0
0.0266666673 -0.0183333326 0
0.0233333334 -0.0183333326 0
0.0199999996 -0.0183333326 0
0.0166666675 -0.0183333326 0
0.0133333337 -0.0183333326 0
0.00999999978 -0.0183333326 0
0.00666666683 -0.0183333326 0
0.00333333341 -0.0183333326 0
0.0 -0.0183333326 0
0.100000001 -0.0216666665 0
0.0966666639 -0.0216666665 0
0.0933333337 -0.0216666665 0
0.0900000036 -0.0216666665 0
0.086666666 -0.0216666665 0
0.0833333358 -0.0216666665 0
0.0799999982 -0.0216666665 0
0.0766666681 -0.0216666665 0
0.0733333305 -0.0216666665 0
0.0700000003 -0.0216666665 0
0.0666666701 -0.0216666665 0
0.0633333325 -0.0216666665 0
0.0599999987 -0.0216666665 0
0.0566666685 -0.0216666665 0
0.0533333346 -0.0216666665 0
0.0500000007 -0.0216666665 0
0.0466666669 -0.0216666665 0
0.043333333 -0.0216666665 0
0.0399999991 -0.0216666665 0
0.0366666652 -0.0216666665 0
0.0333333351 -0.0216666665 0
0.0299999993 -0.0216666665 0
0.0266666673 -0.0216666665 0
0.0233333334 -0.0216666665 0
0.0199999996 -0.0216666665 0
0.0166666675 -0.0216666665 0
0.0133333337 -0.0216666665 0
0.00999999978 -0.0216666665 0
0.00666666683 -0.0216666665 0
0.00333333341 -0.0216666665 0
0.0 -0.0216666665 0
0.100000001 -0.0250000004 0
0.0966666639 -0.0250000004 0
0.0933333337 -0.0250000004 0
0.0900000036 -0.0250000004 0
0.086666666 -0.0250000004 0
0.0833333358 -0.0250000004 0
0.0799999982 -0.0250000004 0
0.0766666681 -0.0250000004 0
0.0733333305 -0.0250000004 0
0.0700000003 -0.0250000004 0
0.0666666701 -0.0250000004 0
0.0633333325 -0.0250000004 0
0.0599999987 -0.0250000004 0
0.0566666685 -0.0250000004 0
0.0533333346 -0.0250000004 0
0.0500000007 -0.0250000004 0
0.0466666669 -0.0250000004 0
0.043333333 -0.0250000004 0
0.0399999991 -0.0250000004 0
0.0366666652 -0.0250000004 0
0.0333333351 -0.0250000004 0
0.0299999993 -0.0250000004 0
0.0266666673 -0.0250000004 0
0.0233333334 -0.0250000004 0
0.0199999996 -0.0250000004 0
0.0166666675 -0.0250000004 0
0.0133333337 -0.0250000004 0
0.00999999978 -0.0250000004 0
0.00666666683 -0.0250000004 0
0.00333333341 -0.0250000004 0
0.0 -0.0250000004 0
0.100000001 -0.0283333343 0
0.0966666639 -0.0283333343 0
0.0933333337 -0.0283333343 0
0.0900000036 -0.0283333343 0
0.086666666 -0.0283333343 0
0.0833333358 -0.0283333343 0
0.0799999982 -0.0283333343 0
0.0766666681 -0.0283333343 0
0.0733333305 -0.0283333343 0
0.0700000003 -0.0283333343 0
0.0666666701 -0.0283333343 0
0.0633333325 -0.0283333343 0
0.0599999987 -0.0283333343 0
0.0566666685 -0.0283333343 0
0.0533333346 -0.0283333343 0
0.0500000007 -0.0283333343 0
0.0466666669 -0.0283333343 0
0.043333333 -0.0283333343 0
0.0399999991 -0.0283333343 0
0.0366666652 -0.0283333343 0
0.0333333351 -0.0283333343 0
0.0299999993 -0.0283333343 0
0.0266666673 -0.0283333343 0
0.0233333334 -0.0283333343 0
0.0199999996 -0.0283333343 0
0.0166666675 -0.0283333343 0
0.0133333337 -0.0283333343 0
0.00999999978 -0.0283333343 0
0.00666666683 -0.0283333343 0
0.00333333341 -0.0283333343 0
0.0 -0.0283333343 0
[...]
POINT_DATA 961
SCALARS Temp float 1
LOOKUP_TABLE default
268.24068900501436
236.3905727961812
214.78630502374588
201.55530097142753
194.23169372618486
190.55104405341194
188.85995009319976
188.14394605962283
187.86226486381338
187.75847566973036
187.72239297295087
187.71047877516793
187.70672093913288
187.7055843865823
187.70525875418528
187.705190540034
187.70525875416465
187.7055843865044
187.70672094125024
187.7104787824248
187.7223929473959
187.7584756958867
187.8622650371491
188.1439460137306
188.85995118773621
190.5510424097816
194.23169581043422
201.5552940210658
214.78630744826276
236.39060196897282
268.2406886900127
236.39060413052314
203.45074938004825
181.10536837013512
167.41887998178998
159.84207552727776
156.03356958093914
154.28343720259238
153.54231022221356
153.25069658054446
153.1432302681854
153.10586346142813
153.09352347292895
153.08963081039246
153.08845333110028
153.08811593479476
153.08804525079935
153.08811593477336
153.0884533310195
153.08963081258588
153.09352348044547
153.10586343496195
153.14323029526986
153.25069676000328
153.54231017470207
154.28343833542147
156.03356788004334
159.84207768373375
167.41887279156467
181.10537087792287
203.45077955217025
236.3906038047335
214.7863089730857
181.10533931496587
158.25224896112437
144.25063834942313
136.49657607354277
132.5973779260897
130.80478874192906
130.04534426148217
129.74639095174058
129.63617242593835
129.59783287041574
129.58516669627053
129.58116966781708
129.57996020361122
129.57961353551204
129.57954089355488
129.57961353548995
129.57996020352817
129.58116967006953
129.58516670398657
129.59783284325582
129.6361724537216
129.74639113574605
130.04534421277182
130.8047899024563
132.59737618423947
136.49657828083792
144.2506309921051
158.2522515261496
181.10537016900156
214.7863086399498
201.55529438280357
167.41883957338752
144.25062713844764
130.05081305287658
122.18346110373383
118.22525801497837
116.40452542676147
115.63270886835173
115.32870679879437
115.21656188068367
115.17753025253838
115.16462846330997
115.16055498436273
115.1593217878045
115.1589681620306
115.15889403942047
115.15896816200808
115.15932178771985
115.1605549866587
115.16462847117089
115.17753022488134
115.21656190895939
115.32870698594823
115.63270881881456
116.40452660579537
118.2252562461821
122.18346334377385
130.05080558947972
144.25062973916152
167.41887084843736
201.55529404516446
194.23169624277224
159.842044285895
136.49657446913866
122.18347094147464
114.25009426790282
110.25674523068834
108.41885772825091
107.63932133082687
107.33209595510735
107.2186938945023
107.17920121043836
107.16613941175478
107.16201308500428
107.16076321444402
107.16040463013542
107.16032944203282
107.16040463011261
107.16076321435814
107.1620130873304
107.16613941971477
107.17920118244731
107.21869392310235
107.33209614428829
107.63932128075987
108.4188589186784
110.2567434456162
114.25009652720806
122.18346341675917
136.49657709003944
159.84207579627645
194.23169590265607
190.55104344559288
156.03353497835366
132.59737299527802
118.22526452432098
110.25674182971575
106.24421470810954
104.39671413720396
103.61273219281878
103.30359978113911
103.1894342677556
103.14965457152019
103.13649083224163
103.13233010639867
103.13106916694153
103.13070723365368
103.13063131746117
103.13070723363067
103.1310691668549
103.13233010874467
103.13649084026521
103.14965454331892
103.18943429655486
103.30359997153153
103.61273214243687
104.39671533409087
106.24421291401116
110.25674409938723
118.22525696726508
132.59737562657278
156.0335666083072
190.5510431042527
188.85995154268034
154.28340466952153
130.80478598408587
116.40453416632377
108.41885655756323
104.3967163872932
102.5442556819835
101.75790965449694
101.44773184737008
101.33313520891475
101.29318875802706
101.27996418018135
101.27578240465905
101.27451453404325
101.27415046084866
101.27407407303404
101.27415046082558
101.27451453395614
101.27578240701732
101.27996418824326
101.29318872970202
101.33313523782806
101.44773203843442
101.75790960394146
102.54425688224693
104.39671458858938
108.41885883235341
116.40452659363801
130.80478862027974
154.28343635505001
188.85995120079377
188.14394648389447
153.54227660254332
130.04534041323322
115.6327165103374
107.63931904255881
103.61273332300132
101.7579085285287
100.97039911412328
100.65968975008299
100.54486665370956
100.50482980372429
100.49157123749166
100.48737736477827
100.48610540510191
100.48574004002803
100.4856633630408
100.48574004000493
100.48610540501456
100.48737736714358
100.49157124557526
100.50482977533146
100.5448666826837
100.65968994149334
100.97039906347888
101.75790973042382
103.61273152212776
107.63932131967978
115.63270893068935
130.04534305155588
153.54230831187814
188.1439461417854
187.86226542622276
153.25066309375686
129.74638724883258
115.32871459286163
107.332093816721
103.30360106381656
101.44773087318615
100.65968990285444
100.34872925836119
100.23379536414333
100.19371276025618
100.18043641870754
100.17623601931385
100.17496178845823
100.17459568719727
100.17451884256246
100.17459568717399
100.17496178837071
100.1762360216831
100.18043642680257
100.19371273182828
100.23379539314763
100.34872944993742
100.65968985216774
101.44773207581301
103.3035992619948
107.3320960948266
115.32870701033576
129.74638988801445
153.25069481256506
187.86226508403067
187.7584760201868
153.14319655817758
129.63616849751645
115.2165694469843
107.21869152436122
103.18943531783043
101.3331340007718
100.54486657238355
100.23379512977482
100.11881062389917
100.07870636687683
100.06542131599576
100.06121761006722
100.05994219177934
100.0595756947244
100.05949875825806
100.05957569470115
100.05994219169175
100.06121761243855
100.0654213240965
100.07870633843203
100.11881065291739
100.23379532142513
100.54486652167802
101.33313520370484
103.18943351562194
107.21869380285534
115.21656186334707
129.63617113702279
153.14322828051476
187.75847567796595
187.7223932954509
153.10582972114116
129.59782891210352
115.17753778898583
107.17919880953193
103.14965559084148
101.29318751879055
100.50482969134413
100.19371249476747
100.0787063357769
100.03859247488131
100.02530341991387
100.02109813959059
100.0198221367127
100.01945543891782
100.0193784549417
100.01945543889445
100.01982213662502
100.02109814196277
100.02530342801732
100.03859244642898
100.0787063648012
100.19371268644869
100.50482964063067
101.2931887218436
103.14965378848513
107.17920108816999
115.17753020494499
129.59783155172528
153.10586144471802
187.72239295322052
187.71047912271936
153.093489758145
129.58516276452428
115.16463602700996
107.16613703824058
103.13649187924794
101.27996296867701
100.4915711529531
100.18043618108393
100.06542131279292
100.02530344782203
100.01201266171405
100.00780667578223
100.00653040166206
100.00616360778768
100.00608660059716
100.00616360776436
100.00653040157424
100.0078066781549
100.01201266981856
100.02530341936644
100.0654213418197
100.1804363727774
100.49157110223652
101.27996417177447
103.13649007683821
107.16613931692908
115.16462844283033
129.58516540418495
153.09352148213534
187.71047878048597
187.70672128305887
153.08959709171287
129.58116573219698
115.16056254418172
107.16201070749754
103.13233114941004
101.27578118911502
100.48737727620386
100.17623577764473
100.06121760282194
100.02109816345626
100.007806671738
100.00360038762351
100.00232399477173
100.00195715748556
100.00188013958297
100.00195715746226
100.00232399468389
100.00360038999636
100.00780667984294
100.02109813499939
100.06121763184971
100.17623596934268
100.4873772254862
101.27578239222791
103.13232934698198
107.162012986203
115.1605549599566
129.58116837187043
153.08962881583466
187.70672094082468
187.70558472872835
153.0884196105338
129.5799562660913
115.15932934570709
107.16076083497553
103.13107020798347
101.27451331651052
100.48610531453768
100.17496154479421
100.05994218253934
100.01982215858341
100.00653039562187
100.00232399277569
100.00104755098138
100.00068069523222
100.00060367267885
100.0006806952089
100.00104755089356
100.00232399514854
100.00653040372703
100.01982213012606
100.05994221156757
100.1749617364939
100.4861052638196
101.27451451962861
103.13106840554946
107.16076311368643
115.1593217614677
129.5799589057687
153.08845133469586
187.70558438649408
187.7052590965247
153.08808221441646
129.57960959819636
115.1589757201473
107.16040225087812
103.13070827491136
101.27414924353027
100.48573994968021
100.1745954437495
100.05957568570143
100.01945546100589
100.00616360196483
100.00195715570689
100.00068069544963
100.00031383253669
100.0002368081452
100.00031383251333
100.00068069536184
100.00195715807986
100.00616361007015
100.01945543254843
100.05957571472985
100.17459563544969
100.48573989896194
101.27415044665001
103.1307064724755
107.16040452959055
115.15896813590369
129.57961223787484
153.08811393859006
187.7052587542904
187.705190882472
153.08801153052042
129.57953695634387
115.15890159764515
107.16032706288382
103.13063235882882
101.27407285582554
100.48566327280359
100.17451859922546
100.05949874934615
100.01937847714107
100.00608659488556
100.00188013791566
100.00060367300746
100.00023680825649
100.00015978338766
100.00023680823313
100.00060367291972
100.00188014028856
100.00608660299082
100.01937844868357
100.05949877837465
100.17451879092579
100.48566322208545
101.27407405894562
103.13063055639252
107.16032934159666
115.1588940134007
129.57953959602253
153.08804325469654
187.70519054023785
187.70525909658318
153.08808221447705
129.57960959825857
115.15897572021082
107.16040225094251
103.13070827497643
101.27414924359569
100.48573994974589
100.17459544381526
100.05957568576731
100.01945546107183
100.00616360203082
100.0019571557729
100.00068069551561
100.00031383260267
100.00023680821121
100.00031383257934
100.00068069542785
100.00195715814581
100.00616361013601
100.01945543261428
100.05957571479574
100.17459563551549
100.48573989902769
101.27415044671551
103.13070647254061
107.16040452965505
115.15896813596736
129.5796122379372
153.08811393865076
187.70525875434888
187.70558472892304
153.08841961073554
129.57995626629847
115.15932934591835
107.16076083518969
103.13107020819947
101.2745133167278
100.48610531475569
100.17496154501265
100.05994218275798
100.01982215880219
100.00653039584066
100.00232399299455
100.00104755120019
100.00068069545108
100.00060367289774
100.00068069542783
100.0010475511124
100.0023239953674
100.00653040394585
100.01982213034469
100.0599422117861
100.17496173671235
100.4861052640377
101.27451451984592
103.13106840576553
107.16076311390064
115.15932176167908
129.57995890597593
153.08845133489763
187.70558438668874
187.70672128370683
153.08959709238405
129.58116573288623
115.16056254488424
107.16201070820925
103.13233115012787
101.27578118983654
100.48737727692765
100.17623577836956
100.06121760354736
100.02109816418198
100.00780667246393
100.00360038834948
100.00232399549776
100.00195715821143
100.00188014030917
100.0019571581883
100.00232399541002
100.0036003907224
100.00780668056898
100.02109813572515
100.06121763257511
100.17623597006767
100.48737722621
101.27578239294947
103.13232934769981
107.16201298691485
115.1605549606593
129.58116837255974
153.089628816506
187.70672094147275
187.710479125007
153.09348976051461
129.58516276695684
115.16463602948824
107.1661370407499
103.13649188177723
101.27996297121848
100.49157115550133
100.18043618363575
100.06542131534647
100.02530345037651
100.01201266426891
100.0078066783373
100.00653040421703
100.00616361034278
100.00608660315224
100.0061636103195
100.00653040412936
100.00780668070999
100.01201267237347
100.02530342192091
100.06542134437338
100.18043637532926
100.49157110478478
101.27996417431592
103.13649007936763
107.16613931943859
115.1646284453086
129.5851654066178
153.093521484505
187.7104787827739
187.7223933146609
153.10582974103596
129.5978289325194
115.17753780977426
107.17919883057046
103.14965561203714
101.29318754007859
100.50482971268279
100.19371251613204
100.07870635715393
100.03859249626395
100.02530344129895
100.02109816097658
100.01982215809909
100.01945546030424
100.01937847632819
100.01945546028091
100.01982215801137
100.02109816334873
100.02530344940239
100.0385924678117
100.0787063861783
100.19371270781335
100.5048296619693
101.29318874313161
103.14965380968083
107.17920110920852
115.17753022573352
129.59783157214127
153.10586146461299
187.7223929724307
187.75847600609157
153.14319654358152
129.63616848254298
115.21656943174338
107.2186915089436
103.18943530230382
101.33313398518249
100.54486655676061
100.23379511413496
100.1188106082514
100.0787063512255
100.06542130034309
100.0612175944141
100.05994217612604
100.05957567907086
100.05949874260442
100.05957567904763
100.05994217603843
100.06121759678538
100.06542130844387
100.07870632278085
100.11881063726976
100.23379530578534
100.54486650605504
101.33313518811559
103.1894335000953
107.21869378743777
115.21656184810627
129.63617112204926
153.14322826591862
187.75847566387063
187.86226557521158
153.25066324800954
129.74638740699555
115.3287147537339
107.33209397933881
103.30360122747851
101.4477310374277
100.65969006739499
100.34872942304513
100.2337955288914
100.19371292503116
100.18043658349329
100.17623618410353
100.17496195324928
100.17459585198873
100.17451900735391
100.17459585196542
100.17496195316173
100.1762361864727
100.18043659158823
100.19371289660336
100.23379555789577
100.34872961462128
100.65969001670825
101.44773224005468
103.30359942565667
107.33209625744442
115.3287071712081
129.74639004617765
153.25069496681775
187.8622652330196
188.14394637730845
153.54227649220454
130.04534030013266
115.63271639534743
107.63931892637042
103.61273320610908
101.75790841125378
100.97039899665546
100.65968963252483
100.54486653611183
100.50482968611038
100.49157111987147
100.48737724715573
100.48610528747871
100.48573992240443
100.4856632454171
100.48573992238119
100.48610528739124
100.48737724952112
100.49157112795505
100.50482965771735
100.54486656508593
100.65968982393514
100.97039894601103
101.75790961314897
103.61273140523552
107.6393212034914
115.63270881569944
130.04534293845555
153.54230820153953
188.14394603519946
188.8599528249479
154.28340599665268
130.8047873436745
116.4045355476053
108.41885795220472
104.39671778951221
102.54425708816534
101.75791106259496
101.4477332563281
101.33313661823293
101.2931901674863
101.2799655896929
101.27578381418891
101.27451594357916
101.27415187038649
101.27407548257223
101.27415187036335
101.27451594349198
101.27578381654709
101.27996559775488
101.29319013916141
101.33313664714619
101.44773344739251
101.75791101203957
102.5442582884288
104.39671599080847
108.41886022699494
116.40452797491959
130.80478997986856
154.28343768218133
188.85995248306128
190.5510442062619
156.03353576547096
132.59737380120364
118.22526534252542
110.25674265526465
106.24421553768516
104.39671496880845
103.61273302536661
103.30360061409405
103.18943510087453
103.14965540470108
103.13649166544462
103.13233093960926
103.1310700001545
103.13070806686736
103.13063215067494
103.13070806684435
103.1310700000678
103.13233094195512
103.13649167346826
103.14965537649982
103.18943512967381
103.30360080448658
103.61273297498488
104.39671616569555
106.24421374358697
110.2567449249363
118.2252577854696
132.59737643249846
156.0335673954246
190.5510438649219
194.23169346393777
159.8420414107268
136.49657152601887
122.18346795447684
114.25009125500749
110.25674220380685
108.4188546944358
107.63931829384124
107.33209291677692
107.21869085563942
107.17919817137738
107.16613637262408
107.16201004585012
107.16076017528245
107.16040159097152
107.16032640286844
107.16040159094875
107.16076017519653
107.16201004817623
107.16613638058388
107.17919814338613
107.2186908842394
107.33209310595792
107.63931824377438
108.4188558848634
110.25674041873492
114.25009351431292
122.18346042976135
136.4965741469198
159.84207292110847
194.23169312382188
201.55530000520037
167.4188453897249
144.25063308970752
130.050819089641
122.18346718982201
118.22526412702314
116.4045315513236
115.6327149984785
115.32871293121693
115.21656801399176
115.17753638616757
115.16463459704961
115.16056111813853
115.15932792159153
115.15897429582085
115.15890017321135
115.15897429579837
115.15932792150682
115.1605611204343
115.1646346049104
115.17753635851054
115.21656804226731
115.32871311837083
115.63271494894136
116.4045327303575
118.225262358227
122.18346942986203
130.05081162624427
144.25063569042138
167.41887666477476
201.5552996675613
214.78630293307597
181.1053330672883
158.2522425702834
144.25063186897532
136.49656954218747
132.59737136840573
130.80478217178378
130.0453376859027
129.74638437396175
129.63616584732705
129.5978262915078
129.5851601172622
129.5811630887765
129.57995362456057
129.57960695645846
129.57953431450073
129.5796069564365
129.57995362447753
129.5811630910288
129.5851601249782
129.59782626434767
129.63616587510995
129.74638455796702
130.04533763719223
130.80478333231093
132.5973696265555
136.49657174948257
144.25062451165718
158.25224513530873
181.10536392132423
214.7863025999398
236.39062855539714
203.45077464162313
181.10539420266934
167.41890616684574
159.8421019093814
156.0335960631595
154.28346373134153
153.5423367708917
153.25072313715168
153.14325682774586
153.10589002202587
153.0935500338728
153.08965737144626
153.08847989218768
153.08814249589176
153.08807181189832
153.0881424958704
153.08847989210682
153.08965737363954
153.093550041389
153.1058899955596
153.1432568548302
153.25072331661016
153.54233672337998
154.28346486417044
156.03359436226364
159.84210406583753
167.41889897662068
181.105396710457
203.45080481374424
236.3906282296074
268.24068879546087
236.3905725794982
214.78630480229566
201.55530074712374
194.23169350035283
190.55104382684462
188.85994986631187
188.1439458326071
187.86226463675075
187.75847544265153
187.72239274586667
187.71047854808216
187.70672071204672
187.7055841594959
187.70525852709872
187.7051903129476
187.7052585270781
187.70558415941798
187.70672071416396
187.71047855533868
187.72239272031152
187.7584754688076
187.86226481008626
188.14394578671477
188.85995096084824
190.551042183214
194.2316955846024
201.55529379676213
214.78630722681248
236.39060175228977
268.2406884804589
