# vtk DataFile Version 2.0
Unstructured Grid Example
ASCII
DATASET UNSTRUCTURED_GRID

POINTS 961 float
0.100000001 0.00499999989 0
0.0966666639 0.00499999989 0
0.0933333337 0.00499999989 0
0.0900000036 0.00499999989 0
0.086666666 0.00499999989 0
0.0833333358 0.00499999989 0
0.0799999982 0.00499999989 0
0.0766666681 0.00499999989 0
0.0733333305 0.00499999989 0
0.0700000003 0.00499999989 0
0.0666666701 0.00499999989 0
0.0633333325 0.00499999989 0
0.0599999987 0.00499999989 0
0.0566666685 0.00499999989 0
0.0533333346 0.00499999989 0
0.0500000007 0.00499999989 0
0.0466666669 0.00499999989 0
0.043333333 0.00499999989 0
0.0399999991 0.00499999989 0
0.0366666652 0.00499999989 0
0.0333333351 0.00499999989 0
0.0299999993 0.00499999989 0
0.0266666673 0.00499999989 0
0.0233333334 0.00499999989 0
0.0199999996 0.00499999989 0
0.0166666675 0.00499999989 0
0.0133333337 0.00499999989 0
0.00999999978 0.00499999989 0
0.00666666683 0.00499999989 0
0.00333333341 0.00499999989 0
0.0 0.00499999989 0
0.100000001 0.00166666671 0
0.0966666639 0.00166666671 0
0.0933333337 0.00166666671 0
0.0900000036 0.00166666671 0
0.086666666 0.00166666671 0
0.0833333358 0.00166666671 0
0.0799999982 0.00166666671 0
0.0766666681 0.00166666671 0
0.0733333305 0.00166666671 0
0.0700000003 0.00166666671 0
0.0666666701 0.00166666671 0
0.0633333325 0.00166666671 0
0.0599999987 0.00166666671 0
0.0566666685 0.00166666671 0
0.0533333346 0.00166666671 0
0.0500000007 0.00166666671 0
0.0466666669 0.00166666671 0
0.043333333 0.00166666671 0
0.0399999991 0.00166666671 0
0.0366666652 0.00166666671 0
0.0333333351 0.00166666671 0
0.0299999993 0.00166666671 0
0.0266666673 0.00166666671 0
0.0233333334 0.00166666671 0
0.0199999996 0.00166666671 0
0.0166666675 0.00166666671 0
0.0133333337 0.00166666671 0
0.00999999978 0.00166666671 0
0.00666666683 0.00166666671 0
0.00333333341 0.00166666671 0
0.0 0.00166666671 0
0.100000001 -0.00166666671 0
0.0966666639 -0.00166666671 0
0.0933333337 -0.00166666671 0
0.0900000036 -0.00166666671 0
0.086666666 -0.00166666671 0
0.0833333358 -0.00166666671 0
0.0799999982 -0.00166666671 0
0.0766666681 -0.00166666671 0
0.0733333305 -0.00166666671 0
0.0700000003 -0.00166666671 0
0.0666666701 -0.00166666671 0
0.0633333325 -0.00166666671 0
0.0599999987 -0.00166666671 0
0.0566666685 -0.00166666671 0
0.0533333346 -0.00166666671 0
0.0500000007 -0.00166666671 0
0.0466666669 -0.00166666671 0
0.043333333 -0.00166666671 0
0.0399999991 -0.00166666671 0
0.0366666652 -0.00166666671 0
0.0333333351 -0.00166666671 0
0.0299999993 -0.00166666671 0
0.0266666673 -0.00166666671 0
0.0233333334 -0.00166666671 0
0.0199999996 -0.00166666671 0
0.0166666675 -0.00166666671 0
0.0133333337 -0.00166666671 0
0.00999999978 -0.00166666671 0
0.00666666683 -0.00166666671 0
0.00333333341 -0.00166666671 0
0.0 -0.00166666671 0
0.100000001 -0.00499999989 0
0.0966666639 -0.00499999989 0
0.0933333337 -0.00499999989 0
0.0900000036 -0.00499999989 0
0.086666666 -0.00499999989 0
0.0833333358 -0.00499999989 0
0.0799999982 -0.00499999989 0
0.0766666681 -0.00499999989 0
0.0733333305 -0.00499999989 0
0.0700000003 -0.00499999989 0
0.0666666701 -0.00499999989 0
0.0633333325 -0.00499999989 0
0.0599999987 -0.00499999989 0
0.0566666685 -0.00499999989 0
0.0533333346 -0.00499999989 0
0.0500000007 -0.00499999989 0
0.0466666669 -0.00499999989 0
0.043333333 -0.00499999989 0
0.0399999991 -0.00499999989 0
0.0366666652 -0.00499999989 0
0.0333333351 -0.00499999989 0
0.0299999993 -0.00499999989 0
0.0266666673 -0.00499999989 0
0.0233333334 -0.00499999989 0
0.0199999996 -0.00499999989 0
0.0166666675 -0.00499999989 0
0.0133333337 -0.00499999989 0
0.00999999978 -0.00499999989 0
0.00666666683 -0.00499999989 0
0.00333333341 -0.00499999989 0
0.0 -0.00499999989 0
0.100000001 -0.00833333377 0
0.0966666639 -0.00833333377 0
0.0933333337 -0.00833333377 0
0.0900000036 -0.00833333377 0
0.086666666 -0.00833333377 0
0.0833333358 -0.00833333377 0
0.0799999982 -0.00833333377 0
0.0766666681 -0.00833333377 0
0.0733333305 -0.00833333377 0
0.0700000003 -0.00833333377 0
0.0666666701 -0.00833333377 0
0.0633333325 -0.00833333377 0
0.0599999987 -0.00833333377 0
0.0566666685 -0.00833333377 0
0.0533333346 -0.00833333377 0
0.0500000007 -0.00833333377 0
0.0466666669 -0.00833333377 0
0.043333333 -0.00833333377 0
0.0399999991 -0.00833333377 0
0.0366666652 -0.00833333377 0
0.0333333351 -0.00833333377 0
0.0299999993 -0.00833333377 0
0.0266666673 -0.00833333377 0
0.0233333334 -0.00833333377 0
0.0199999996 -0.00833333377 0
0.0166666675 -0.00833333377 0
0.0133333337 -0.00833333377 0
0.00999999978 -0.00833333377 0
0.00666666683 -0.00833333377 0
0.00333333341 -0.00833333377 0
0.0 -0.00833333377 0
0.100000001 -0.0116666667 0
0.0966666639 -0.0116666667 0
0.0933333337 -0.0116666667 0
0.0900000036 -0.0116666667 0
0.086666666 -0.0116666667 0
0.0833333358 -0.0116666667 0
0.0799999982 -0.0116666667 0
0.0766666681 -0.0116666667 0
0.0733333305 -0.0116666667 0
0.0700000003 -0.0116666667 0
0.0666666701 -0.0116666667 0
0.0633333325 -0.0116666667 0
0.0599999987 -0.0116666667 0
0.0566666685 -0.0116666667 0
0.0533333346 -0.0116666667 0
0.0500000007 -0.0116666667 0
0.0466666669 -0.0116666667 0
0.043333333 -0.0116666667 0
0.0399999991 -0.0116666667 0
0.0366666652 -0.0116666667 0
0.0333333351 -0.0116666667 0
0.0299999993 -0.0116666667 0
0.0266666673 -0.0116666667 0
0.0233333334 -0.0116666667 0
0.0199999996 -0.0116666667 0
0.0166666675 -0.0116666667 0
0.0133333337 -0.0116666667 0
0.00999999978 -0.0116666667 0
0.00666666683 -0.0116666667 0
0.00333333341 -0.0116666667 0
0.0 -0.0116666667 0
0.100000001 -0.0149999997 0
0.0966666639 -0.0149999997 0
0.0933333337 -0.0149999997 0
0.0900000036 -0.0149999997 0
0.086666666 -0.0149999997 0
0.0833333358 -0.0149999997 0
0.0799999982 -0.0149999997 0
0.0766666681 -0.0149999997 0
0.0733333305 -0.0149999997 0
0.0700000003 -0.0149999997 0
0.0666666701 -0.0149999997 0
0.0633333325 -0.0149999997 0
0.0599999987 -0.0149999997 0
0.0566666685 -0.0149999997 0
0.0533333346 -0.0149999997 0
0.0500000007 -0.0149999997 0
0.0466666669 -0.0149999997 0
0.043333333 -0.0149999997 0
0.0399999991 -0.0149999997 0
0.0366666652 -0.0149999997 0
0.0333333351 -0.0149999997 0
0.0299999993 -0.0149999997 0
0.0266666673 -0.0149999997 0
0.0233333334 -0.0149999997 0
0.0199999996 -0.0149999997 0
0.0166666675 -0.0149999997 0
0.0133333337 -0.0149999997 0
0.00999999978 -0.0149999997 0
0.00666666683 -0.0149999997 0
0.00333333341 -0.0149999997 0
0.0 -0.0149999997 0
0.100000001 -0.0183333326 0
0.0966666639 -0.0183333326 0
0.0933333337 -0.0183333326 0
0.0900000036 -0.0183333326 0
0.086666666 -0.0183333326 0
0.0833333358 -0.0183333326 0
0.0799999982 -0.0183333326 0
0.0766666681 -0.0183333326 0
0.0733333305 -0.0183333326 0
0.0700000003 -0.0183333326 0
0.0666666701 -0.0183333326 0
0.0633333325 -0.0183333326 0
0.0599999987 -0.0183333326 0
0.0566666685 -0.0183333326 0
0.0533333346 -0.0183333326 0
0.0500000007 -0.0183333326 0
0.0466666669 -0.0183333326 0
0.043333333 -0.0183333326 0
0.0399999991 -0.0183333326 0
0.0366666652 -0.0183333326 0
0.0333333351 -0.0183333326 0
0.0299999993 -0.0183333326 0
0.0266666673 -0.0183333326 0
0.0233333334 -0.0183333326 0
0.0199999996 -0.0183333326 0
0.0166666675 -0.0183333326 0
0.0133333337 -0.0183333326 0
0.00999999978 -0.0183333326 0
0.00666666683 -0.0183333326 0
0.00333333341 -0.0183333326 0
0.0 -0.0183333326 0
0.100000001 -0.0216666665 0
0.0966666639 -0.0216666665 0
0.0933333337 -0.0216666665 0
0.0900000036 -0.0216666665 0
0.086666666 -0.0216666665 0
0.0833333358 -0.0216666665 0
0.0799999982 -0.0216666665 0
0.0766666681 -0.0216666665 0
0.0733333305 -0.0216666665 0
0.0700000003 -0.0216666665 0
0.0666666701 -0.0216666665 0
0.0633333325 -0.0216666665 0
0.0599999987 -0.0216666665 0
0.0566666685 -0.0216666665 0
0.0533333346 -0.0216666665 0
0.0500000007 -0.0216666665 0
0.0466666669 -0.0216666665 0
0.043333333 -0.0216666665 0
0.0399999991 -0.0216666665 0
0.0366666652 -0.0216666665 0
0.0333333351 -0.0216666665 0
0.0299999993 -0.0216666665 0
0.0266666673 -0.0216666665 0
0.0233333334 -0.0216666665 0
0.0199999996 -0.0216666665 0
0.0166666675 -0.0216666665 0
0.0133333337 -0.0216666665 0
0.00999999978 -0.0216666665 0
0.00666666683 -0.0216666665 0
0.00333333341 -0.0216666665 0
0.0 -0.0216666665 0
0.100000001 -0.0250000004 0
0.0966666639 -0.0250000004 0
0.0933333337 -0.0250000004 0
0.0900000036 -0.0250000004 0
0.086666666 -0.0250000004 0
0.0833333358 -0.0250000004 0
0.0799999982 -0.0250000004 0
0.0766666681 -0.0250000004 0
0.0733333305 -0.0250000004 0
0.0700000003 -0.0250000004 0
0.0666666701 -0.0250000004 0
0.0633333325 -0.0250000004 0
0.0599999987 -0.0250000004 0
0.0566666685 -0.0250000004 0
0.0533333346 -0.0250000004 0
0.0500000007 -0.0250000004 0
0.0466666669 -0.0250000004 0
0.043333333 -0.0250000004 0
0.0399999991 -0.0250000004 0
0.0366666652 -0.0250000004 0
0.0333333351 -0.0250000004 0
0.0299999993 -0.0250000004 0
0.0266666673 -0.0250000004 0
0.0233333334 -0.0250000004 0
0.0199999996 -0.0250000004 0
0.0166666675 -0.0250000004 0
0.0133333337 -0.0250000004 0
0.00999999978 -0.0250000004 0
0.00666666683 -0.0250000004 0
0.00333333341 -0.0250000004 0
0.0 -0.0250000004 0
0.100000001 -0.0283333343 0
0.0966666639 -0.0283333343 0
0.0933333337 -0.0283333343 0
0.0900000036 -0.0283333343 0
0.086666666 -0.0283333343 0
0.0833333358 -0.0283333343 0
0.0799999982 -0.0283333343 0
0.0766666681 -0.0283333343 0
0.0733333305 -0.0283333343 0
0.0700000003 -0.0283333343 0
0.0666666701 -0.0283333343 0
0.0633333325 -0.0283333343 0
0.0599999987 -0.0283333343 0
0.0566666685 -0.0283333343 0
0.0533333346 -0.0283333343 0
0.0500000007 -0.0283333343 0
0.0466666669 -0.0283333343 0
0.043333333 -0.0283333343 0
0.0399999991 -0.0283333343 0
0.0366666652 -0.0283333343 0
0.0333333351 -0.0283333343 0
0.0299999993 -0.0283333343 0
0.0266666673 -0.0283333343 0
0.0233333334 -0.0283333343 0
0.0199999996 -0.0283333343 0
0.0166666675 -0.0283333343 0
0.0133333337 -0.0283333343 0
0.00999999978 -0.0283333343 0
0.00666666683 -0.0283333343 0
0.00333333341 -0.0283333343 0
0.0 -0.0283333343 0
[...]
POINT_DATA 961
SCALARS Temp float 1
LOOKUP_TABLE default
276.70109786331926
244.83758324142096
222.63696538892935
208.5286996743927
200.35190923014406
196.01762081840246
193.90609815589124
192.95493661748893
192.5561183059395
192.39942395890017
192.3413645621576
192.3209562727254
192.3141150033275
192.31192081274494
192.31125732409572
192.31111296732902
192.31125732405255
192.3119208125897
192.314115007268
192.32095628542896
192.34136451984725
192.39942399952577
192.55611855741316
192.95493655182077
193.9060995585863
196.01761881377377
200.35191161114727
208.52869206470626
222.63696791245658
244.837612791181
276.7010975536382
244.8376149710843
211.87366980274228
188.9047775601737
174.30693440728928
165.84544148164497
161.35966399698063
159.17403844680967
158.18935539173935
157.7764222773257
157.61415935098904
157.5540284313031
157.5328892231021
157.52580205576214
157.52352873395765
157.52284124561362
157.52269165648784
157.522841245569
157.5235287337967
157.52580205984458
157.53288923626107
157.55402838748037
157.61415939306085
157.7764225377137
158.18935532374525
159.17403989881996
161.35966192211382
165.845443945688
174.3069265330234
188.90478017111494
211.8737003739952
244.83761465073076
222.63696948754284
188.9047482065434
165.39645476611386
150.4522609035017
141.787485459823
137.19240761650224
134.95271702587632
133.943295700014
133.51982698840973
133.35336130147945
133.29165028537838
133.26994792657572
133.26266950558562
133.2603340947491
133.25962762821916
133.2594738795336
133.2596276281732
133.26033409458384
133.2626695097786
133.26994794008687
133.29165024039673
133.35336134464814
133.51982725547992
133.9432956302804
134.9527185140425
137.192405490614
141.7874879834274
150.45225284106016
165.39645743859293
188.90477949284224
222.6369691597876
208.52869242313812
174.30689281874805
150.45224881580256
135.28337002283163
126.48506410516104
121.81716954296549
119.54091263596287
118.514498738682
118.08368088400539
117.91423934183706
117.85139338393678
117.82928102464601
117.82186158774837
117.81947985708814
117.81875908500086
117.81860217882551
117.81875908495387
117.81947985691941
117.82186159202323
117.82928103841462
117.85139333811715
117.91423938578737
118.08368115576377
118.5144986677314
119.54091414874526
121.8171673827724
126.48506666813056
135.28336183743656
150.45225152794046
174.30692456233726
208.5286920907202
200.35191204915532
165.84541002710924
141.78748400469325
126.48507500977405
117.60619136963622
112.89358700896655
110.59445489693967
109.55720385220718
109.12160784539137
108.95019479805266
108.88658327485189
108.86418959997717
108.8566718497155
108.85425734492841
108.85352631808547
108.8533671285445
108.85352631803785
108.85425734475724
108.8566718540478
108.86418961392353
108.88658322846257
108.95019484252512
109.12160812022039
109.55720378046233
110.59445642524975
112.89358482746812
117.60619395654021
126.48506675066601
141.78748674021347
165.8454420377916
200.35191171407544
196.0176199923256
161.35962861679613
137.19240227687493
121.81717656148493
112.8935830311044
108.15567207179782
105.84330910054257
104.79964707073658
104.36115946660766
104.18852637481649
104.1244307771695
104.10185554554602
104.09427311274267
104.09183665698359
104.0910986531126
104.09093789355636
104.09109865306453
104.09183665681094
104.09427311711303
104.10185555960791
104.1244307304164
104.18852641961524
104.36115974331126
104.79964699850893
105.84331063792138
108.15566987807905
112.89358563140442
121.8171682617805
137.1924050250332
161.3596607703072
196.01761965586738
193.90609991328887
159.17400566547101
134.9527144165731
119.54092245963318
110.59445372461639
105.843311933386
103.52386518496613
102.47668359872416
102.03656743156083
101.8632295319635
101.79884729541338
101.77616198444622
101.76853944748117
101.76608909565068
101.76534659324686
101.76518480889668
101.76534659319859
101.766089095477
101.76853945187538
101.77616199857873
101.79884724844247
101.86322957695305
102.03656770933085
102.47668352622321
103.52386672725333
105.84330973318411
110.59445633183513
119.5409141393265
134.95271717101895
159.17403788922383
193.9060995761807
192.95493706566035
158.1893212209051
133.94329169711466
118.51450715980238
109.55720124978687
104.79964847036501
102.47668215658535
101.42770442198795
100.98673382336547
100.81301570935813
100.74847455233646
100.72572657441053
100.71808062397885
100.7156219658263
100.7148767178845
100.71471429932923
100.71487671783605
100.71562196565202
100.71808062838714
100.72572658858364
100.74847450524325
100.81301575445201
100.98673410170129
101.42770434934276
102.47668370133991
104.79964626697279
109.55720386031558
118.51449882981808
133.94329445445516
158.18935347660945
192.95493672827098
192.5561189652467
157.77638831064104
133.51982320785356
118.08368953757348
109.12160547234224
104.36116109965715
102.03656622177559
100.98673405730733
100.5453450483324
100.37143516170646
100.30681145415213
100.28402997421321
100.27637115579056
100.27390781194875
100.27316097906929
100.27299818873325
100.27316097902063
100.27390781177408
100.27637116020664
100.28402998840828
100.3068114069943
100.37143520685363
100.54534532694852
100.986733984591
102.03656776768555
104.36115889480334
109.12160808434479
118.08368120335881
133.51982596643467
157.77642057987393
192.55611862774532
192.39942431113897
157.61412506060543
133.35335719402377
117.91424766525674
108.95019208874537
104.18852767032932
101.86322798246154
100.81301560336244
100.37143482130436
100.19743431280232
100.13277037493903
100.10997206240184
100.1023065840782
100.09984074584341
100.09909304785484
100.09893005118859
100.09909304780614
100.09984074566864
100.10230658849837
100.10997207660807
100.13277032774924
100.19743435797488
100.3714351000505
100.81301553061326
101.86322952887775
104.18852546484896
108.950194701362
117.91423932931144
133.35335995310288
157.61415733520454
192.39942397359584
192.34136486895127
157.55399409170388
133.2916461293173
117.85140165880546
108.88658051547478
104.12443202262794
101.79884569526921
100.7484743957636
100.30681106305148
100.13277032427669
100.06808795444793
100.04528168212038
100.03761295498755
100.0351458631167
100.03439771862294
100.03423461357245
100.03439771857418
100.03514586294168
100.03761295940969
100.04528169633193
100.06808790724332
100.1327703694608
100.30681134185433
100.74847432300021
101.79884724189372
104.1244298168954
108.88658312833209
117.85139332219391
133.29164888858497
157.55402636830976
192.34136453139365
192.32095662149155
157.53285492621555
133.26994381503513
117.829289345214
108.86418688653428
104.10185683745357
101.77616043083236
100.725726464567
100.28402962988494
100.10997205857271
100.04528172897564
100.02247190707818
100.01480168412422
100.01233399691445
100.01158563442365
100.0114224754802
100.01158563437487
100.01233399673941
100.01480168854731
100.02247192129211
100.04528168176446
100.1099721037618
100.2840299087109
100.72572639179765
101.77616197753791
104.10185463162492
108.86418949948099
117.82928100835947
133.2699465743702
157.5328872035331
192.32095628392918
192.31411534592402
157.52576775222792
133.26266538744824
117.8218699017149
108.85666912946972
104.09427439784615
101.76853788697984
100.71808050725656
100.27637080456452
100.10230657335757
100.03761299495153
100.01480167722917
100.0071308033059
100.00466284873647
100.00391438554237
100.00375120123653
100.0039143854936
100.00466284856144
100.00713080772935
100.01480169144405
100.03761294773777
100.10230661854855
100.27637108339958
100.71808043448497
101.76853943371509
104.0942721919829
108.85667174244789
117.82186156477617
133.26266814680665
157.52580002978596
192.3141150083601
192.31192115200136
157.52349442687995
133.26032997304566
117.81948816745793
108.85425462099822
104.09183793838818
101.76608753141235
100.71562184536461
100.27390745697319
100.09984073137382
100.03514589933093
100.01233398626768
100.0046628449846
100.00219477716179
100.00144627010815
100.00128307455364
100.00144627005935
100.0021947769866
100.00466284940825
100.01233400048307
100.0351458521161
100.09984077656559
100.27390773581162
100.71562177259227
101.76608907815809
104.09183573251302
108.85425723398698
117.81947983049129
133.26033273241165
157.52352670451583
192.31192081443712
192.31125766373066
157.52280693890282
133.2596235069151
117.81876739579029
108.85352359456841
104.09109993493986
101.76534502942803
100.71487659784682
100.2731606245174
100.09909303381052
100.03439775526324
100.01158562420275
100.00391438221641
100.00144627053419
100.00069774606723
100.0005345459741
100.00069774601843
100.0014462703591
100.00391438664016
100.0115856384184
100.03439770804806
100.09909307900273
100.27316090335698
100.7148765250741
101.76534657617721
104.09109772906089
108.85352620756056
117.81875905881495
133.25962626628333
157.52283921656243
192.3112573261663
192.31111330717079
157.52265734998593
133.25946975844906
117.81861048984165
108.85336440525488
104.09093917561457
101.76518324530883
100.71471417952408
100.27299783441408
100.09893003737777
100.03423465044659
100.01142246549301
100.00375119814441
100.00128307521341
100.00053454620796
100.00037134491951
100.00053454615914
100.00128307503837
100.0037512025681
100.01142247970856
100.03423460323131
100.09893008257004
100.27299811325405
100.71471410675144
101.7651847920587
104.09093696973461
108.85336701824778
117.81860215286444
133.25947251781787
157.5226896276506
192.3111129696065
192.31125766385094
157.5228069390276
133.25962350704322
117.81876739592104
108.85352359470109
104.09109993507381
101.76534502956278
100.71487659798204
100.27316062465285
100.0990930339462
100.0343977553991
100.01158562433861
100.00391438235232
100.00144627067007
100.00069774620314
100.00053454611005
100.00069774615434
100.00144627049495
100.00391438677599
100.01158563855408
100.03439770818379
100.09909307913838
100.27316090349254
100.71487652520945
101.76534657631194
104.09109772919479
108.85352620769326
117.81875905894584
133.25962626641157
157.52283921668726
192.31125732628666
192.311921152384
157.52349442727635
133.26032997345294
117.81948816787339
108.85425462141936
104.09183793881324
101.76608753183994
100.71562184579369
100.27390745740304
100.09984073180411
100.03514589976159
100.0123339866984
100.0046628454154
100.00219477759255
100.00144627053892
100.00128307498447
100.00144627049025
100.0021947774175
100.004662849839
100.01233400091377
100.03514585254659
100.09984077699589
100.27390773624161
100.71562177302138
101.76608907858568
104.09183573293812
108.85425723440822
117.81947983090683
133.260332732819
157.5235267049123
192.31192081481979
192.3141153471256
157.52576775347282
133.26266538872684
117.82186990301844
108.8566691307907
104.0942743991787
101.76853788831959
100.71808050860061
100.2763708059109
100.10230657470511
100.03761299629971
100.01480167857771
100.00713080465455
100.00466285008525
100.00391438689108
100.00375120258526
100.0039143868424
100.00466284991013
100.00713080907806
100.0148016927927
100.0376129490859
100.10230661989617
100.27637108474603
100.71808043582915
101.7685394350549
104.09427219331546
108.85667174376898
117.82186156607982
133.2626681480853
157.52580003103103
192.3141150095618
192.32095662548744
157.53285493035474
133.2699438192852
117.82928934954498
108.86418689092108
104.1018568418765
101.77616043527755
100.72572646902492
100.28402963434965
100.10997206304098
100.04528173344558
100.02247191154892
100.01480168859527
100.01233400138561
100.0115856388949
100.01142247995143
100.01158563884616
100.01233400121066
100.01480169301844
100.0224719257629
100.04528168623449
100.10997210823011
100.28402991317574
100.72572639625562
101.7761619819831
104.10185463604803
108.86418950386789
117.82928101269056
133.2699465786205
157.53288720767247
192.3209562879253
192.34136490060135
157.55399412448503
133.29164616296453
117.85140169307783
108.88658055017147
104.12443205759533
101.79884573039841
100.74847443098352
100.306811098319
100.13277035956762
100.0680879897498
100.04528171742702
100.03761299029618
100.03514589842607
100.03439775393257
100.03423464888222
100.03439775388385
100.03514589825109
100.03761299471833
100.04528173163867
100.06808794254529
100.13277040475184
100.30681137712178
100.74847435822004
101.79884727702297
104.12442985186277
108.88658316302889
117.85139335646622
133.29164892223224
157.55402640109108
192.34136456304387
192.39942428895978
157.61412503763592
133.35335717045382
117.91424764125715
108.95019206445772
104.18852764586096
101.86322795788685
100.81301557872933
100.37143479664114
100.1974342881245
100.13277035025456
100.10997203771461
100.10230655938989
100.09984072115466
100.09909302316578
100.09893002649953
100.09909302311712
100.09984072097987
100.10230656381012
100.10997205192089
100.132770303065
100.19743433329727
100.37143507538734
100.81301550598016
101.86322950430313
104.1885254403806
108.95019467707453
117.91423930531201
133.35335992953287
157.61415731223497
192.39942395141685
192.55611918185204
157.77638853492573
133.51982343789712
118.08368977165944
109.12160570907743
104.36116133801104
102.03656646105107
100.98673429707232
100.54534528834017
100.37143540182697
100.30681169432184
100.28403021440326
100.27637139598845
100.27390805214952
100.273161219271
100.27299842893508
100.27316121922236
100.27390805197493
100.27637140040449
100.28403022859825
100.3068116471641
100.3714354469742
100.54534556695631
100.98673422435596
102.03656800696118
104.36115913315714
109.12160832108003
118.08368143744484
133.51982619647833
157.77642080415865
192.55611884435083
192.95493691751875
158.1893210675267
133.94329153983995
118.51450699982117
109.55720108805497
104.79964830757982
102.47668199321089
101.42770425830649
100.98673365953476
100.81301554545946
100.74847438840887
100.72572641047108
100.71808046003494
100.71562180188087
100.71487655393842
100.71471413538298
100.71487655388988
100.71562180170652
100.71808046444323
100.72572642464422
100.74847434131547
100.81301559055335
100.98673393787055
101.42770418566124
102.47668353796544
104.79964610418759
109.55720369858373
118.51449866983691
133.94329429718059
158.18935332323122
192.95493658012947
193.90610155814136
159.17400736815603
134.95271616166684
119.5409242336077
110.59445551681462
105.84331373623174
103.52386699357729
102.47668541023491
102.03656924443045
101.86323134542889
101.79884910912394
101.77616379825213
101.76854126132223
101.76609090950404
101.76534840710426
101.76518662275498
101.76534840705588
101.76609090933029
101.76854126571641
101.77616381238465
101.79884906215308
101.86323139041842
102.03656952220058
102.47668533773414
103.52386853586457
105.84331153602996
110.59445812403341
119.54091591330116
134.9527189161128
159.1740395919091
193.90610122103303
196.01762089757497
161.35962955370874
137.192403236679
121.81717753658134
112.89358401562218
108.15567306166923
105.84331009322537
104.799648064788
104.36116046127962
104.18852736975168
104.12443177220976
104.10185654062582
104.0942741078366
104.09183765208242
104.09109964821289
104.09093888865699
104.09109964816481
104.09183765190964
104.09427411220695
104.10185655468764
104.12443172545666
104.1885274145505
104.36116073798328
104.7996479925606
105.84331163060433
108.15567086795072
112.8935866159224
121.81716923687698
137.1924059848373
161.35966170721989
196.01762056111698
200.35190885017204
165.84540671649623
141.78748061389007
126.48507156586135
117.60618789334845
112.89358351450447
110.59445139306024
109.55720034380695
109.12160433497124
108.95019128678835
108.88657976325554
108.86418608825741
108.85666833795209
108.8542538331502
108.85352280630258
108.85336361676056
108.85352280625501
108.85425383297905
108.8566683422843
108.86418610220366
108.88657971686615
108.95019133126075
109.12160460980034
109.55720027206225
110.59445292137046
112.89358133300624
117.60619048025268
126.4850633067533
141.7874833494103
165.84543872717873
200.35190851509242
208.52869854883653
174.30689915735536
150.45225530569246
135.28337661144533
126.48507075287442
121.81717622317524
119.54091933263786
118.51450544307967
118.083687591774
117.91424605098325
117.85140009361268
117.82928773451515
117.82186829768438
117.81948656704614
117.8187657949657
117.81860888879183
117.8187657949187
117.81948656687742
117.82186830195906
117.82928774828355
117.85140004779302
117.91424609493346
118.08368786353246
118.514505372129
119.54092084542032
121.81717406298226
126.485073315844
135.28336842605034
150.45225801783033
174.3069309009446
208.52869821641858
222.63696313695453
188.90474163581396
165.39644804010445
150.4522540771652
141.78747857416167
137.19240069867917
134.95271009200735
133.9432887587396
133.519820043955
133.3533543557461
133.29164333916083
133.2699409801843
133.26266255913478
133.26032714827883
133.25962068174292
133.25946693305602
133.25962068169702
133.26032714811342
133.26266256332764
133.26994099369531
133.29164329417893
133.35335439891446
133.51982031102503
133.94328868900584
134.9527115801735
137.19239857279106
141.78748109776612
150.45224601472358
165.39645071258366
188.90477292211304
222.63696280919905
244.8376397124867
211.87369539941997
188.90480375554108
174.30696098552843
165.84546828350324
161.359690918412
159.17406542704092
158.18938239871406
157.77644929562234
157.61418637377602
157.55405545576892
157.53291624816347
157.5258290810246
157.52355575928507
157.52286827096077
157.52271868183934
157.52286827091606
157.5235557591241
157.52582908510684
157.5329162613221
157.55405541194608
157.6141864158476
157.7764495560101
158.1893823307198
159.17406687905097
161.35968884354517
165.8454707475463
174.30695311126277
188.90480636648223
211.873725970672
244.8376393921331
276.7010976689834
244.8375830404166
222.63696518335507
208.52869946598395
200.35190902014546
196.01762060759506
193.9060979447086
192.95493640614632
192.55611809453399
192.3994237474715
192.3413643507208
192.32095606128598
192.31411479188736
192.31192060130445
192.31125711265506
192.31111275588844
192.31125711261188
192.31192060114915
192.3141147958277
192.32095607398918
192.34136430841014
192.39942378809684
192.5561183460076
192.95493634047807
193.90609934740354
196.01761860296625
200.35191140114873
208.5286918562976
222.63696770688225
244.8376125901766
276.701097359302
