# vtk DataFile Version 2.0
Unstructured Grid Example
ASCII
DATASET UNSTRUCTURED_GRID

POINTS 961 float
0.100000001 0.00499999989 0
0.0966666639 0.00499999989 0
0.0933333337 0.00499999989 0
0.0900000036 0.00499999989 0
0.086666666 0.00499999989 0
0.0833333358 0.00499999989 0
0.0799999982 0.00499999989 0
0.0766666681 0.00499999989 0
0.0733333305 0.00499999989 0
0.0700000003 0.00499999989 0
0.0666666701 0.00499999989 0
0.0633333325 0.00499999989 0
0.0599999987 0.00499999989 0
0.0566666685 0.00499999989 0
0.0533333346 0.00499999989 0
0.0500000007 0.00499999989 0
0.0466666669 0.00499999989 0
0.043333333 0.00499999989 0
0.0399999991 0.00499999989 0
0.0366666652 0.00499999989 0
0.0333333351 0.00499999989 0
0.0299999993 0.00499999989 0
0.0266666673 0.00499999989 0
0.0233333334 0.00499999989 0
0.0199999996 0.00499999989 0
0.0166666675 0.00499999989 0
0.0133333337 0.00499999989 0
0.00999999978 0.00499999989 0
0.00666666683 0.00499999989 0
0.00333333341 0.00499999989 0
0.0 0.00499999989 0
0.100000001 0.00166666671 0
0.0966666639 0.00166666671 0
0.0933333337 0.00166666671 0
0.0900000036 0.00166666671 0
0.086666666 0.00166666671 0
0.0833333358 0.00166666671 0
0.0799999982 0.00166666671 0
0.0766666681 0.00166666671 0
0.0733333305 0.00166666671 0
0.0700000003 0.00166666671 0
0.0666666701 0.00166666671 0
0.0633333325 0.00166666671 0
0.0599999987 0.00166666671 0
0.0566666685 0.00166666671 0
0.0533333346 0.00166666671 0
0.0500000007 0.00166666671 0
0.0466666669 0.00166666671 0
0.043333333 0.00166666671 0
0.0399999991 0.00166666671 0
0.0366666652 0.00166666671 0
0.0333333351 0.00166666671 0
0.0299999993 0.00166666671 0
0.0266666673 0.00166666671 0
0.0233333334 0.00166666671 0
0.0199999996 0.00166666671 0
0.0166666675 0.00166666671 0
0.0133333337 0.00166666671 0
0.00999999978 0.00166666671 0
0.00666666683 0.00166666671 0
0.00333333341 0.00166666671 0
0.0 0.00166666671 0
0.100000001 -0.00166666671 0
0.0966666639 -0.00166666671 0
0.0933333337 -0.00166666671 0
0.0900000036 -0.00166666671 0
0.086666666 -0.00166666671 0
0.0833333358 -0.00166666671 0
0.0799999982 -0.00166666671 0
0.0766666681 -0.00166666671 0
0.0733333305 -0.00166666671 0
0.0700000003 -0.00166666671 0
0.0666666701 -0.00166666671 0
0.0633333325 -0.00166666671 0
0.0599999987 -0.00166666671 0
0.0566666685 -0.00166666671 0
0.0533333346 -0.00166666671 0
0.0500000007 -0.00166666671 0
0.0466666669 -0.00166666671 0
0.043333333 -0.00166666671 0
0.0399999991 -0.00166666671 0
0.0366666652 -0.00166666671 0
0.0333333351 -0.00166666671 0
0.0299999993 -0.00166666671 0
0.0266666673 -0.00166666671 0
0.0233333334 -0.00166666671 0
0.0199999996 -0.00166666671 0
0.0166666675 -0.00166666671 0
0.0133333337 -0.00166666671 0
0.00999999978 -0.00166666671 0
0.00666666683 -0.00166666671 0
0.00333333341 -0.00166666671 0
0.0 -0.00166666671 0
0.100000001 -0.00499999989 0
0.0966666639 -0.00499999989 0
0.0933333337 -0.00499999989 0
0.0900000036 -0.00499999989 0
0.086666666 -0.00499999989 0
0.0833333358 -0.00499999989 0
0.0799999982 -0.00499999989 0
0.0766666681 -0.00499999989 0
0.0733333305 -0.00499999989 0
0.0700000003 -0.00499999989 0
0.0666666701 -0.00499999989 0
0.0633333325 -0.00499999989 0
0.0599999987 -0.00499999989 0
0.0566666685 -0.00499999989 0
0.0533333346 -0.00499999989 0
0.0500000007 -0.00499999989 0
0.0466666669 -0.00499999989 0
0.043333333 -0.00499999989 0
0.0399999991 -0.00499999989 0
0.0366666652 -0.00499999989 0
0.0333333351 -0.00499999989 0
0.0299999993 -0.00499999989 0
0.0266666673 -0.00499999989 0
0.0233333334 -0.00499999989 0
0.0199999996 -0.00499999989 0
0.0166666675 -0.00499999989 0
0.0133333337 -0.00499999989 0
0.00999999978 -0.00499999989 0
0.00666666683 -0.00499999989 0
0.00333333341 -0.00499999989 0
0.0 -0.00499999989 0
0.100000001 -0.00833333377 0
0.0966666639 -0.00833333377 0
0.0933333337 -0.00833333377 0
0.0900000036 -0.00833333377 0
0.086666666 -0.00833333377 0
0.0833333358 -0.00833333377 0
0.0799999982 -0.00833333377 0
0.0766666681 -0.00833333377 0
0.0733333305 -0.00833333377 0
0.0700000003 -0.00833333377 0
0.0666666701 -0.00833333377 0
0.0633333325 -0.00833333377 0
0.0599999987 -0.00833333377 0
0.0566666685 -0.00833333377 0
0.0533333346 -0.00833333377 0
0.0500000007 -0.00833333377 0
0.0466666669 -0.00833333377 0
0.043333333 -0.00833333377 0
0.0399999991 -0.00833333377 0
0.0366666652 -0.00833333377 0
0.0333333351 -0.00833333377 0
0.0299999993 -0.00833333377 0
0.0266666673 -0.00833333377 0
0.0233333334 -0.00833333377 0
0.0199999996 -0.00833333377 0
0.0166666675 -0.00833333377 0
0.0133333337 -0.00833333377 0
0.00999999978 -0.00833333377 0
0.00666666683 -0.00833333377 0
0.00333333341 -0.00833333377 0
0.0 -0.00833333377 0
0.100000001 -0.0116666667 0
0.0966666639 -0.0116666667 0
0.0933333337 -0.0116666667 0
0.0900000036 -0.0116666667 0
0.086666666 -0.0116666667 0
0.0833333358 -0.0116666667 0
0.0799999982 -0.0116666667 0
0.0766666681 -0.0116666667 0
0.0733333305 -0.0116666667 0
0.0700000003 -0.0116666667 0
0.0666666701 -0.0116666667 0
0.0633333325 -0.0116666667 0
0.0599999987 -0.0116666667 0
0.0566666685 -0.0116666667 0
0.0533333346 -0.0116666667 0
0.0500000007 -0.0116666667 0
0.0466666669 -0.0116666667 0
0.043333333 -0.0116666667 0
0.0399999991 -0.0116666667 0
0.0366666652 -0.0116666667 0
0.0333333351 -0.0116666667 0
0.0299999993 -0.0116666667 0
0.0266666673 -0.0116666667 0
0.0233333334 -0.0116666667 0
0.0199999996 -0.0116666667 0
0.0166666675 -0.0116666667 0
0.0133333337 -0.0116666667 0
0.00999999978 -0.0116666667 0
0.00666666683 -0.0116666667 0
0.00333333341 -0.0116666667 0
0.0 -0.0116666667 0
0.100000001 -0.0149999997 0
0.0966666639 -0.0149999997 0
0.0933333337 -0.0149999997 0
0.0900000036 -0.0149999997 0
0.086666666 -0.0149999997 0
0.0833333358 -0.0149999997 0
0.0799999982 -0.0149999997 0
0.0766666681 -0.0149999997 0
0.0733333305 -0.0149999997 0
0.0700000003 -0.0149999997 0
0.0666666701 -0.0149999997 0
0.0633333325 -0.0149999997 0
0.0599999987 -0.0149999997 0
0.0566666685 -0.0149999997 0
0.0533333346 -0.0149999997 0
0.0500000007 -0.0149999997 0
0.0466666669 -0.0149999997 0
0.043333333 -0.0149999997 0
0.0399999991 -0.0149999997 0
0.0366666652 -0.0149999997 0
0.0333333351 -0.0149999997 0
0.0299999993 -0.0149999997 0
0.0266666673 -0.0149999997 0
0.0233333334 -0.0149999997 0
0.0199999996 -0.0149999997 0
0.0166666675 -0.0149999997 0
0.0133333337 -0.0149999997 0
0.00999999978 -0.0149999997 0
0.00666666683 -0.0149999997 0
0.00333333341 -0.0149999997 0
0.0 -0.0149999997 0
0.100000001 -0.0183333326 0
0.0966666639 -0.0183333326 0
0.0933333337 -0.0183333326 0
0.0900000036 -0.0183333326 0
0.086666666 -0.0183333326 0
0.0833333358 -0.0183333326 0
0.0799999982 -0.0183333326 0
0.0766666681 -0.0183333326 0
0.0733333305 -0.0183333326 0
0.0700000003 -0.0183333326 0
0.0666666701 -0.0183333326 0
0.0633333325 -0.0183333326 0
0.0599999987 -0.0183333326 0
0.0566666685 -0.0183333326 0
0.0533333346 -0.0183333326 0
0.0500000007 -0.0183333326 0
0.0466666669 -0.0183333326 0
0.043333333 -0.0183333326 0
0.0399999991 -0.0183333326 0
0.0366666652 -0.0183333326 0
0.0333333351 -0.0183333326 0
0.0299999993 -0.0183333326 0
0.0266666673 -0.0183333326 0
0.0233333334 -0.0183333326 0
0.0199999996 -0.0183333326 0
0.0166666675 -0.0183333326 0
0.0133333337 -0.0183333326 0
0.00999999978 -0.0183333326 0
0.00666666683 -0.0183333326 0
0.00333333341 -0.0183333326 0
0.0 -0.0183333326 0
0.100000001 -0.0216666665 0
0.0966666639 -0.0216666665 0
0.0933333337 -0.0216666665 0
0.0900000036 -0.0216666665 0
0.086666666 -0.0216666665 0
0.0833333358 -0.0216666665 0
0.0799999982 -0.0216666665 0
0.0766666681 -0.0216666665 0
0.0733333305 -0.0216666665 0
0.0700000003 -0.0216666665 0
0.0666666701 -0.0216666665 0
0.0633333325 -0.0216666665 0
0.0599999987 -0.0216666665 0
0.0566666685 -0.0216666665 0
0.0533333346 -0.0216666665 0
0.0500000007 -0.0216666665 0
0.0466666669 -0.0216666665 0
0.043333333 -0.0216666665 0
0.0399999991 -0.0216666665 0
0.0366666652 -0.0216666665 0
0.0333333351 -0.0216666665 0
0.0299999993 -0.0216666665 0
0.0266666673 -0.0216666665 0
0.0233333334 -0.0216666665 0
0.0199999996 -0.0216666665 0
0.0166666675 -0.0216666665 0
0.0133333337 -0.0216666665 0
0.00999999978 -0.0216666665 0
0.00666666683 -0.0216666665 0
0.00333333341 -0.0216666665 0
0.0 -0.0216666665 0
0.100000001 -0.0250000004 0
0.0966666639 -0.0250000004 0
0.0933333337 -0.0250000004 0
0.0900000036 -0.0250000004 0
0.086666666 -0.0250000004 0
0.0833333358 -0.0250000004 0
0.0799999982 -0.0250000004 0
0.0766666681 -0.0250000004 0
0.0733333305 -0.0250000004 0
0.0700000003 -0.0250000004 0
0.0666666701 -0.0250000004 0
0.0633333325 -0.0250000004 0
0.0599999987 -0.0250000004 0
0.0566666685 -0.0250000004 0
0.0533333346 -0.0250000004 0
0.0500000007 -0.0250000004 0
0.0466666669 -0.0250000004 0
0.043333333 -0.0250000004 0
0.0399999991 -0.0250000004 0
0.0366666652 -0.0250000004 0
0.0333333351 -0.0250000004 0
0.0299999993 -0.0250000004 0
0.0266666673 -0.0250000004 0
0.0233333334 -0.0250000004 0
0.0199999996 -0.0250000004 0
0.0166666675 -0.0250000004 0
0.0133333337 -0.0250000004 0
0.00999999978 -0.0250000004 0
0.00666666683 -0.0250000004 0
0.00333333341 -0.0250000004 0
0.0 -0.0250000004 0
0.100000001 -0.0283333343 0
0.0966666639 -0.0283333343 0
0.0933333337 -0.0283333343 0
0.0900000036 -0.0283333343 0
0.086666666 -0.0283333343 0
0.0833333358 -0.0283333343 0
0.0799999982 -0.0283333343 0
0.0766666681 -0.0283333343 0
0.0733333305 -0.0283333343 0
0.0700000003 -0.0283333343 0
0.0666666701 -0.0283333343 0
0.0633333325 -0.0283333343 0
0.0599999987 -0.0283333343 0
0.0566666685 -0.0283333343 0
0.0533333346 -0.0283333343 0
0.0500000007 -0.0283333343 0
0.0466666669 -0.0283333343 0
0.043333333 -0.0283333343 0
0.0399999991 -0.0283333343 0
0.0366666652 -0.0283333343 0
0.0333333351 -0.0283333343 0
0.0299999993 -0.0283333343 0
0.0266666673 -0.0283333343 0
0.0233333334 -0.0283333343 0
0.0199999996 -0.0283333343 0
0.0166666675 -0.0283333343 0
0.0133333337 -0.0283333343 0
0.00999999978 -0.0283333343 0
0.00666666683 -0.0283333343 0
0.00333333341 -0.0283333343 0
0.0 -0.0283333343 0
[...]
POINT_DATA 961
SCALARS Temp float 1
LOOKUP_TABLE default
292.1342190508954
260.328647998599
237.2281240679648
221.68676720332155
212.01292011545635
206.4370418386839
203.45387421079226
201.9672050668071
201.27416414120725
200.97056758276003
200.84500361271114
200.79574876716427
200.77734766170602
200.77078953983022
200.76860475293225
200.76809650031979
200.76860475278295
200.77078953933662
200.7773476727457
200.795748799053
200.8450035162673
200.9705676655679
201.27416459707203
201.96720495016837
203.4538762799083
206.43703910855484
212.0129230361514
221.68675847518182
237.22812674978798
260.3286780819354
292.13421877065497
260.32868026385427
227.40831371086787
203.49703798360065
187.409255728136
177.3945297247321
171.62166999707117
168.53281676819043
166.9933206559883
166.27557695798743
165.96112509894294
165.8310575524772
165.78003071981712
165.7609656690233
165.75417025506144
165.75190621796102
165.75137949817292
165.75190621780632
165.75417025455002
165.76096568046174
165.78003075285426
165.8310574525689
165.9611251847162
166.27557743012122
166.99332053518947
168.53281891070503
171.6216671703263
177.39453274845877
187.4092466927386
203.4970407596121
227.4083448493054
260.3286799738336
237.22812838007005
203.49700822598703
178.99397877715245
162.5054350084156
152.23920413075538
146.32000387864747
143.15203791279242
141.57267870729802
140.83613995495466
140.51336010990084
140.37980910415484
140.32740068807965
140.30781398063414
140.30083076681015
140.2985036011907
140.29796210718084
140.29850360103154
140.30083076628446
140.30781399238674
140.3274007220146
140.37980900155642
140.51336019795778
140.8361404395076
141.57267858332818
143.15204011044253
146.32000097979045
152.23920723072868
162.50542574691121
178.99398162203977
203.49704013309255
237.2281280830226
221.68675880294882
187.4092122541034
162.50542144530482
145.74369106491167
135.30463630947344
129.28394104316283
126.0605446018291
124.45295270296594
123.7029543976617
123.37414410635058
123.23804290797628
123.18461223828024
123.16463558586143
123.1575106286472
123.1551354069795
123.1545826020644
123.15513540681711
123.15751062811078
123.16463559784968
123.18461227288229
123.23804280339787
123.37414419606984
123.70295489114761
124.45295257671995
126.06054683829146
129.28393809397807
135.30463946205234
145.7436816485824
162.50542433695745
187.40924468048325
221.68675850124754
212.01292345942812
177.39449806046406
152.23920298337958
135.3046490766171
124.75517534775997
118.66888706682286
115.4092125693103
113.78289376281815
113.02384363299302
112.69092108229337
112.55305688579571
112.4989100338174
112.47865666983488
112.47142990700335
112.46901979873063
112.46845872422936
112.46901979856582
112.47142990645918
112.47865668199141
112.49891006888879
112.55305677983947
112.69092117315355
113.02384413252004
113.78289363503671
115.40921483132334
118.66888408485926
124.75517853411745
135.30463956179972
152.23920590447472
177.3945308117222
212.01292315489104
206.43704054684218
171.62163333141655
146.31999778275485
129.28394886137227
118.668881984493
112.54310689959415
109.26126868169845
107.62332741559533
106.85856720608233
106.52300750573775
106.38399412045217
106.32937294033512
106.30893347751096
106.3016372473064
106.29920302706641
106.29863618843405
106.29920302689993
106.30163724675683
106.30893348978117
106.32937297571941
106.38399401359052
106.52300759733531
106.8585677094455
107.62332728684198
109.26127095942901
112.54310389771823
118.66888519103306
129.28393928834635
146.32000072104597
171.62166627104116
206.43704024071502
203.45387661006916
168.53278381580495
143.15203572199067
126.06055643979909
115.40921150821416
109.26127274884547
105.96678791736885
104.32209665612001
103.55395853552301
103.21680926380994
103.07709012403309
103.02217225171485
103.00161430057558
102.99427309115043
102.99182302490426
102.99125236089832
102.99182302473669
102.99427309059735
103.00161431291882
103.02217228729606
103.07709001661016
103.21680935585618
103.55395904117272
104.32209652678931
105.96679020413747
109.26126973567933
115.4092147259888
126.06054683476128
143.15203866961775
168.5328168568677
203.45387630311976
201.967205545399
166.99328566028652
141.5726744690403
124.45296248095215
113.78289059561247
107.62332937167403
104.32209452824642
102.6737309111154
101.90371768278918
101.56566763168499
101.42554017605119
101.37044709941203
101.34981776946613
101.3424489454432
101.33998898602616
101.33941590723992
101.3399889858579
101.34244894488793
101.34981778185362
101.37044713511034
101.42554006830021
101.5656677239877
101.9037181897189
102.67373078146271
104.3220968198797
107.62332635252298
113.78289381922664
124.45295285948977
141.57267742139334
166.9933187522535
201.96720523805595
201.27416503283757
166.27554236451175
140.83613615230053
123.70296463068496
113.02384091560239
106.85856962027471
103.55395686368976
101.90371814232276
101.13272683778877
100.79419644155998
100.65384632185541
100.59865554894218
100.57798553860718
100.57060064441363
100.5681348201687
100.56756029240118
100.56813481999995
100.57060064385712
100.57798555102006
100.59865558470636
100.65384621392334
100.79419653400112
101.13272734539203
101.90371801250139
103.55395915777909
106.85856659814993
113.02384414205929
123.7029550013336
140.83613910689257
166.2755754803791
201.27416472531934
200.9705679192088
165.96108991919053
140.5133557155618
123.37415374186229
112.69091775513772
106.52300930767123
103.21680697493888
101.56566747370131
100.79419582289756
100.45542401942616
100.31495932395336
100.25971707389566
100.23902512110874
100.2316313616052
100.22916223663542
100.22858688266545
100.22916223646641
100.23163136104792
100.23902513353545
100.25971710969479
100.31495921592686
100.45542411193762
100.79419633083485
101.56566734379672
103.21680927019459
106.52300628415742
112.69092098289536
123.37414410894995
140.51335867115117
165.961123045604
200.97056761161758
200.84500384864106
165.83102226389983
140.37980460223523
123.23805243599695
112.55305344762978
106.38399581138972
103.07708772270104
101.42553990575418
100.65384559054105
100.31495921139599
100.1744387953309
100.11917088473476
100.09846772164124
100.09106932381366
100.0885984349485
100.08802263333
100.08859843477943
100.09106932325594
100.09846773407504
100.11917092055144
100.17443868725798
100.31495930394118
100.65384609863456
101.42553977581075
103.07709001847937
106.38399278726376
112.55305667594911
123.23804280156773
140.37980755824378
165.83105539470628
200.8450035410215
200.79574910087518
165.77999553068022
140.32739628992758
123.18462187294615
112.49890670285417
106.32937473979298
103.02216995910499
101.37044693837991
100.59865492701122
100.25971707090392
100.1191709943707
100.06389096406674
100.04318237016132
100.03578166909891
100.03330988484278
100.03273385271916
100.03330988467374
100.03578166854099
100.0431823825986
100.06389099989177
100.1191708862761
100.25971716346449
100.59865543517408
101.37044680841947
103.02217225510503
106.32937171541137
112.49890993140329
123.18461223790462
140.32739924610328
165.78002866322205
200.7957487932451
200.777347980801
165.76093046404736
140.30780956683276
123.16464520490563
112.4786533227118
106.30893526082245
103.00161199158251
101.3498175920821
100.5779849002666
100.23902510172785
100.09846781489038
100.04318235376084
100.02247126303135
100.01506947610544
100.0125972601489
100.01202111527009
100.01259725997969
100.01506947554732
100.02247127547025
100.04318238958973
100.09846770678602
100.23902519429501
100.57798540845855
101.34981746211452
103.00161428767176
106.30893223633966
112.4786565513503
123.16463556962897
140.307812523072
165.760963597242
200.77734767316713
200.77078984941696
165.75413503998365
140.3008263428501
123.15752023744936
112.47142654937268
106.30163902006865
102.99427077148728
101.34244875738197
100.57059999536168
100.23163133151486
100.09106940635084
100.03578164197927
100.01506946538541
100.00766719442281
100.00519478175657
100.00461858476982
100.00519478158738
100.0076671938647
100.01506947782502
100.0357816778097
100.09106929824252
100.23163142408468
100.57060050356527
101.34244862741163
102.99427306761075
106.30163599554764
112.47142977804428
123.15751060208673
140.30082929911234
165.7541681734124
200.7707895417819
200.76860506368146
165.75187100400402
140.29849917845678
123.15514501707378
112.46901644236914
106.29920480113003
102.99182070653045
101.33998879927042
100.56813417242071
100.22916220785578
100.08859851879889
100.0333098590351
100.0125972507412
100.00519478306934
100.0027222888914
100.00214607004322
100.00272228872221
100.0051947825112
100.01259726318114
100.03330989486619
100.08859841068907
100.22916230042667
100.56813468062848
101.33998866929893
102.99182300266605
106.29920177659564
112.46901967105218
123.1551353816819
140.29850213472662
165.75190413751125
200.76860475604607
200.7680968117885
165.7513442849423
140.29795768521086
123.15459221294836
112.46845536865949
106.29863796330211
102.99125004332953
101.33941572129517
100.56755964546514
100.22858685470017
100.08802271799578
100.0327338277267
100.01202110667795
100.00461858689806
100.00214607085886
100.0015698461014
100.0021460706897
100.00461858634011
100.01202111911793
100.03273386355794
100.08802260988554
100.22858694727131
100.56756015367404
101.33941559132344
102.991252339468
106.29863493876445
112.46845859734515
123.15458257754949
140.2979606414826
165.75137741846788
200.7680965041532
200.7686050640835
165.75187100442076
140.29849917888515
123.15514501751109
112.4690164428129
106.29920480157827
102.99182070698166
101.33998879972349
100.5681341728748
100.22916220831043
100.08859851925395
100.03330985949025
100.01259725119647
100.0051947835246
100.00272228934668
100.00214607049854
100.00272228917751
100.00519478296658
100.01259726363635
100.03330989532138
100.0885984111441
100.22916230088137
100.56813468108261
101.3399886697519
102.99182300311716
106.29920177704389
112.4690196714959
123.1551353821192
140.2985021351551
165.75190413792808
200.76860475644833
200.77078985059754
165.754135041207
140.30082634410746
123.15752023873235
112.47142655067421
106.3016390213829
102.99427077280978
101.34244875870954
100.57059999669224
100.23163133284697
100.09106940768388
100.03578164331265
100.015069466719
100.00766719575647
100.00519478309035
100.00461858610346
100.0051947829212
100.00766719519848
100.01506947915868
100.0357816791431
100.09106929957564
100.23163142541682
100.5706005048957
101.34244862873906
102.99427306893324
106.30163599686183
112.47142977934591
123.1575106033698
140.30082930036974
165.75416817463594
200.77078954296266
200.77734798414173
165.76093046750898
140.30780957038928
123.16464520853346
112.47865332639047
106.30893526453545
103.00161199531742
101.34981759583033
100.5779849040224
100.23902510548785
100.09846781865237
100.04318235752395
100.02247126679487
100.0150694798692
100.01259726391271
100.01202111903397
100.01259726374353
100.01506947931121
100.02247127923384
100.04318239335294
100.09846771054809
100.23902519805495
100.57798541221429
101.34981746586269
103.00161429140671
106.30893224005264
112.47865655502903
123.16463557325689
140.30781252662877
165.76096360070386
200.77734767650816
200.79574911085933
165.77999554102374
140.32739630055224
123.18462188377957
112.49890671383442
106.32937475087087
103.0221699702444
101.37044694955587
100.59865493820779
100.25971708211121
100.11917100558355
100.06389097528208
100.04318238137795
100.03578168031594
100.03330989606015
100.03273386393641
100.03330989589102
100.03578167975807
100.04318239381529
100.0638910111072
100.1191708974888
100.25971717467175
100.59865544637049
101.3704468195954
103.02217226624431
106.3293717264894
112.49890994238363
123.18461224873819
140.32739925672828
165.78002867356597
200.7957488032296
200.8450039200621
165.8310223378856
140.3798046782111
123.23805251343599
112.55305352608583
106.38399589051282
103.07708780223689
101.42553998553076
100.6538456704501
100.31495929137387
100.17443887534259
100.11917096476218
100.09846780167562
100.09106940385091
100.08859851498688
100.08802271336859
100.08859851481779
100.09106940329313
100.09846781410934
100.11917100057885
100.17443876726965
100.31495938391899
100.6538461785437
101.42553985558727
103.07709009801515
106.38399286638678
112.55305675440518
123.23804287900712
140.37980763422004
165.83105546869245
200.84500361244304
200.97056787284464
165.96108987116494
140.5133556662541
123.37415369161897
112.69091770425015
106.52300925636548
103.21680692337769
101.56566742199313
100.79419577110959
100.45542396759747
100.31495927210504
100.2597170220383
100.23902506924739
100.23163130974217
100.22916218477171
100.22858683080156
100.22916218460266
100.23163130918479
100.239025081674
100.2597170578373
100.3149591640784
100.45542406010885
100.7941962790468
101.56566729208849
103.21680921863332
106.52300623285184
112.69092093200793
123.37414405870689
140.51335862184388
165.96112299757874
200.97056756525387
201.27416542698518
166.2755427727273
140.8361365712581
123.70296505737251
113.0238413475199
106.85857005551527
103.5539573009125
101.90371858065589
101.13272727670686
100.79419688076828
100.6538467611997
100.59865598834689
100.57798597803715
100.57060108385366
100.56813525961246
100.56756073184582
100.56813525944366
100.570601083297
100.5779859904499
100.5986560241108
100.65384665326746
100.79419697320934
101.13272778431009
101.90371845083448
103.55395959500194
106.85856703339071
113.02384457397709
123.70295542802145
140.83613952585063
166.275575888595
201.2741651194672
201.9672052951008
166.99328540107368
141.57267420305882
124.45296221013713
113.78289032155799
107.62332909558404
104.3220942509579
102.67373063316487
101.90371740449523
101.56566735322322
101.42553989751222
101.37044682083923
101.34981749087932
101.34244866685088
101.33998870743186
101.33941562864511
101.33998870726353
101.34244866629555
101.34981750326665
101.3704468565374
101.42553978976093
101.5656674455259
101.90371791142475
102.67373050351219
104.32209654259131
107.62332607643312
113.78289354517219
124.45295258867495
141.57267715541218
166.9933184930409
201.96720498775804
203.45387904079234
168.53278633275914
143.15203830372963
126.06055906715248
115.40921416560417
109.26127542471863
105.9667906038744
104.32209934835083
103.55396123064558
103.21681196030657
103.07709282114541
103.02217494908881
103.0016169980549
102.99427578866994
102.991825722438
102.99125505843566
102.99182572227043
102.9942757881168
103.0016170103979
103.02217498466977
103.07709271372245
103.21681205235248
103.5539617362952
104.32209921902002
105.96679289064303
109.26127241155264
115.40921738337906
126.06054946211498
143.15204125135693
168.53281937382206
203.45387873384317
206.4370417315659
171.62163455801596
146.3199990405093
129.28395014077688
118.6688832779238
112.54310820149347
109.2612699883671
107.62332872477434
106.85856851649966
106.52300881672939
106.38399543169528
106.32937425168245
106.30893478889921
106.30163855871011
106.29920433847552
106.29863749984445
106.29920433830904
106.30163855816059
106.30893480116947
106.32937428706657
106.38399532483346
106.52300890832679
106.85856901986266
107.62332859602095
109.26127226609766
112.54310519961768
118.668886484464
129.28394056775116
146.32000197880075
171.62166749764077
206.43704142543896
212.0129194860302
177.3944939468451
152.23919876588553
135.30464478735567
124.75517101233659
118.66888270376283
115.40920819083273
113.78288937630826
113.02383924256388
112.69091669006643
112.55305249279074
112.49890564049348
112.47865227638664
112.47142551350909
112.46901540522038
112.46845433071532
112.46901540505563
112.4714255129648
112.47865228854313
112.49890567556486
112.55305238683438
112.69091678092647
113.02383974209076
113.78288924852687
115.40921045284568
118.66887972179937
124.75517419869423
135.3046352725384
152.2392016869808
177.39452669810368
212.01291918149343
221.68676578316683
187.4092194800015
162.50542885190632
145.7436985951681
135.3046439183293
129.2839486984329
126.06055228260216
124.45296039681277
123.70296209778277
123.37415180930158
123.23805061213183
123.18461994292194
123.16464329068964
123.15751833354348
123.15514311189912
123.15459030698949
123.15514311173686
123.15751833300713
123.16464330267789
123.18461997752394
123.23805050755352
123.37415189902077
123.70296259126862
124.45296027056666
126.0605545190645
129.28394574924823
135.30464707090815
145.74368917883888
162.505431743559
187.40925190638131
221.68676548146556
237.2281215483099
203.49700115421095
178.99397152971224
162.5054276415712
152.23919668864153
146.3199963925139
143.1520304027303
141.57267118510944
140.8361324270156
140.51335257939917
140.3798015725754
140.3273931560703
140.3078064484618
140.30082323457873
140.29849606893936
140.29795457492494
140.29849606878045
140.3008232340531
140.30780646021444
140.32739319000544
140.37980146997694
140.5133526674561
140.83613291156854
141.57267106113963
143.15203260038032
146.3199934936569
152.23919978861477
162.50541838006686
178.9939743745997
203.49703306131687
237.2281212512625
260.32870544661415
227.40833977684443
203.49706469300278
187.40928287218645
177.39455714070058
171.62169757068736
168.532844426695
166.9933483570877
166.27560467908367
165.9611528288618
165.83108528607067
165.78005845486211
165.7609934046142
165.75419799084807
165.75193395381336
165.75140723404064
165.7519339536587
165.75419799033676
165.76099341605268
165.78005848789928
165.8310851861625
165.96115291463505
166.27560515121752
166.99334823628874
168.5328465692096
171.62169474394256
177.39456016442725
187.40927383678925
203.4970674690143
227.40837091528132
260.3287051565936
292.1342188867819
260.32864782876896
237.22812389404925
221.68676702671868
212.01291993722887
206.43704165955288
203.45387403119773
201.96720488699256
201.27416396129536
200.970567402808
200.8450034327436
200.79574858719124
200.77734748173094
200.77078935985435
200.76860457295604
200.7680963203437
200.76860457280696
200.77078935936095
200.77734749277045
200.79574861907972
200.84500333629978
200.97056748561616
201.27416441716025
201.96720477035393
203.45387610031395
206.43703892942384
212.012922857924
221.68675829857895
237.22812657587252
260.3286779121056
292.1342186065415
