# vtk DataFile Version 2.0
Unstructured Grid Example
ASCII
DATASET UNSTRUCTURED_GRID

POINTS 961 float
0.100000001 0.00499999989 0
0.0966666639 0.00499999989 0
0.0933333337 0.00499999989 0
0.0900000036 0.00499999989 0
0.086666666 0.00499999989 0
0.0833333358 0.00499999989 0
0.0799999982 0.00499999989 0
0.0766666681 0.00499999989 0
0.0733333305 0.00499999989 0
0.0700000003 0.00499999989 0
0.0666666701 0.00499999989 0
0.0633333325 0.00499999989 0
0.0599999987 0.00499999989 0
0.0566666685 0.00499999989 0
0.0533333346 0.00499999989 0
0.0500000007 0.00499999989 0
0.0466666669 0.00499999989 0
0.043333333 0.00499999989 0
0.0399999991 0.00499999989 0
0.0366666652 0.00499999989 0
0.0333333351 0.00499999989 0
0.0299999993 0.00499999989 0
0.0266666673 0.00499999989 0
0.0233333334 0.00499999989 0
0.0199999996 0.00499999989 0
0.0166666675 0.00499999989 0
0.0133333337 0.00499999989 0
0.00999999978 0.00499999989 0
0.00666666683 0.00499999989 0
0.00333333341 0.00499999989 0
0.0 0.00499999989 0
0.100000001 0.00166666671 0
0.0966666639 0.00166666671 0
0.0933333337 0.00166666671 0
0.0900000036 0.00166666671 0
0.086666666 0.00166666671 0
0.0833333358 0.00166666671 0
0.0799999982 0.00166666671 0
0.0766666681 0.00166666671 0
0.0733333305 0.00166666671 0
0.0700000003 0.00166666671 0
0.0666666701 0.00166666671 0
0.0633333325 0.00166666671 0
0.0599999987 0.00166666671 0
0.0566666685 0.00166666671 0
0.0533333346 0.00166666671 0
0.0500000007 0.00166666671 0
0.0466666669 0.00166666671 0
0.043333333 0.00166666671 0
0.0399999991 0.00166666671 0
0.0366666652 0.00166666671 0
0.0333333351 0.00166666671 0
0.0299999993 0.00166666671 0
0.0266666673 0.00166666671 0
0.0233333334 0.00166666671 0
0.0199999996 0.00166666671 0
0.0166666675 0.00166666671 0
0.0133333337 0.00166666671 0
0.00999999978 0.00166666671 0
0.00666666683 0.00166666671 0
0.00333333341 0.00166666671 0
0.0 0.00166666671 0
0.100000001 -0.00166666671 0
0.0966666639 -0.00166666671 0
0.0933333337 -0.00166666671 0
0.0900000036 -0.00166666671 0
0.086666666 -0.00166666671 0
0.0833333358 -0.00166666671 0
0.0799999982 -0.00166666671 0
0.0766666681 -0.00166666671 0
0.0733333305 -0.00166666671 0
0.0700000003 -0.00166666671 0
0.0666666701 -0.00166666671 0
0.0633333325 -0.00166666671 0
0.0599999987 -0.00166666671 0
0.0566666685 -0.00166666671 0
0.0533333346 -0.00166666671 0
0.0500000007 -0.00166666671 0
0.0466666669 -0.00166666671 0
0.043333333 -0.00166666671 0
0.0399999991 -0.00166666671 0
0.0366666652 -0.00166666671 0
0.0333333351 -0.00166666671 0
0.0299999993 -0.00166666671 0
0.0266666673 -0.00166666671 0
0.0233333334 -0.00166666671 0
0.0199999996 -0.00166666671 0
0.0166666675 -0.00166666671 0
0.0133333337 -0.00166666671 0
0.00999999978 -0.00166666671 0
0.00666666683 -0.00166666671 0
0.00333333341 -0.00166666671 0
0.0 -0.00166666671 0
0.100000001 -0.00499999989 0
0.0966666639 -0.00499999989 0
0.0933333337 -0.00499999989 0
0.0900000036 -0.00499999989 0
0.086666666 -0.00499999989 0
0.0833333358 -0.00499999989 0
0.0799999982 -0.00499999989 0
0.0766666681 -0.00499999989 0
0.0733333305 -0.00499999989 0
0.0700000003 -0.00499999989 0
0.0666666701 -0.00499999989 0
0.0633333325 -0.00499999989 0
0.0599999987 -0.00499999989 0
0.0566666685 -0.00499999989 0
0.0533333346 -0.00499999989 0
0.0500000007 -0.00499999989 0
0.0466666669 -0.00499999989 0
0.043333333 -0.00499999989 0
0.0399999991 -0.00499999989 0
0.0366666652 -0.00499999989 0
0.0333333351 -0.00499999989 0
0.0299999993 -0.00499999989 0
0.0266666673 -0.00499999989 0
0.0233333334 -0.00499999989 0
0.0199999996 -0.00499999989 0
0.0166666675 -0.00499999989 0
0.0133333337 -0.00499999989 0
0.00999999978 -0.00499999989 0
0.00666666683 -0.00499999989 0
0.00333333341 -0.00499999989 0
0.0 -0.00499999989 0
0.100000001 -0.00833333377 0
0.0966666639 -0.00833333377 0
0.0933333337 -0.00833333377 0
0.0900000036 -0.00833333377 0
0.086666666 -0.00833333377 0
0.0833333358 -0.00833333377 0
0.0799999982 -0.00833333377 0
0.0766666681 -0.00833333377 0
0.0733333305 -0.00833333377 0
0.0700000003 -0.00833333377 0
0.0666666701 -0.00833333377 0
0.0633333325 -0.00833333377 0
0.0599999987 -0.00833333377 0
0.0566666685 -0.00833333377 0
0.0533333346 -0.00833333377 0
0.0500000007 -0.00833333377 0
0.0466666669 -0.00833333377 0
0.043333333 -0.00833333377 0
0.0399999991 -0.00833333377 0
0.0366666652 -0.00833333377 0
0.0333333351 -0.00833333377 0
0.0299999993 -0.00833333377 0
0.0266666673 -0.00833333377 0
0.0233333334 -0.00833333377 0
0.0199999996 -0.00833333377 0
0.0166666675 -0.00833333377 0
0.0133333337 -0.00833333377 0
0.00999999978 -0.00833333377 0
0.00666666683 -0.00833333377 0
0.00333333341 -0.00833333377 0
0.0 -0.00833333377 0
0.100000001 -0.0116666667 0
0.0966666639 -0.0116666667 0
0.0933333337 -0.0116666667 0
0.0900000036 -0.0116666667 0
0.086666666 -0.0116666667 0
0.0833333358 -0.0116666667 0
0.0799999982 -0.0116666667 0
0.0766666681 -0.0116666667 0
0.0733333305 -0.0116666667 0
0.0700000003 -0.0116666667 0
0.0666666701 -0.0116666667 0
0.0633333325 -0.0116666667 0
0.0599999987 -0.0116666667 0
0.0566666685 -0.0116666667 0
0.0533333346 -0.0116666667 0
0.0500000007 -0.0116666667 0
0.0466666669 -0.0116666667 0
0.043333333 -0.0116666667 0
0.0399999991 -0.0116666667 0
0.0366666652 -0.0116666667 0
0.0333333351 -0.0116666667 0
0.0299999993 -0.0116666667 0
0.0266666673 -0.0116666667 0
0.0233333334 -0.0116666667 0
0.0199999996 -0.0116666667 0
0.0166666675 -0.0116666667 0
0.0133333337 -0.0116666667 0
0.00999999978 -0.0116666667 0
0.00666666683 -0.0116666667 0
0.00333333341 -0.0116666667 0
0.0 -0.0116666667 0
0.100000001 -0.0149999997 0
0.0966666639 -0.0149999997 0
0.0933333337 -0.0149999997 0
0.0900000036 -0.0149999997 0
0.086666666 -0.0149999997 0
0.0833333358 -0.0149999997 0
0.0799999982 -0.0149999997 0
0.0766666681 -0.0149999997 0
0.0733333305 -0.0149999997 0
0.0700000003 -0.0149999997 0
0.0666666701 -0.0149999997 0
0.0633333325 -0.0149999997 0
0.0599999987 -0.0149999997 0
0.0566666685 -0.0149999997 0
0.0533333346 -0.0149999997 0
0.0500000007 -0.0149999997 0
0.0466666669 -0.0149999997 0
0.043333333 -0.0149999997 0
0.0399999991 -0.0149999997 0
0.0366666652 -0.0149999997 0
0.0333333351 -0.0149999997 0
0.0299999993 -0.0149999997 0
0.0266666673 -0.0149999997 0
0.0233333334 -0.0149999997 0
0.0199999996 -0.0149999997 0
0.0166666675 -0.0149999997 0
0.0133333337 -0.0149999997 0
0.00999999978 -0.0149999997 0
0.00666666683 -0.0149999997 0
0.00333333341 -0.0149999997 0
0.0 -0.0149999997 0
0.100000001 -0.0183333326 0
0.0966666639 -0.0183333326 0
0.0933333337 -0.0183333326 0
0.0900000036 -0.0183333326 0
0.086666666 -0.0183333326 0
0.0833333358 -0.0183333326 0
0.0799999982 -0.0183333326 0
0.0766666681 -0.0183333326 0
0.0733333305 -0.0183333326 0
0.0700000003 -0.0183333326 0
0.0666666701 -0.0183333326 0
0.0633333325 -0.0183333326 0
0.0599999987 -0.0183333326 0
0.0566666685 -0.0183333326 0
0.0533333346 -0.0183333326 0
0.0500000007 -0.0183333326 0
0.0466666669 -0.0183333326 0
0.043333333 -0.0183333326 0
0.0399999991 -0.0183333326 0
0.0366666652 -0.0183333326 0
0.0333333351 -0.0183333326 0
0.0299999993 -0.0183333326 0
0.0266666673 -0.0183333326 0
0.0233333334 -0.0183333326 0
0.0199999996 -0.0183333326 0
0.0166666675 -0.0183333326 0
0.0133333337 -0.0183333326 0
0.00999999978 -0.0183333326 0
0.00666666683 -0.0183333326 0
0.00333333341 -0.0183333326 0
0.0 -0.0183333326 0
0.100000001 -0.0216666665 0
0.0966666639 -0.0216666665 0
0.0933333337 -0.0216666665 0
0.0900000036 -0.0216666665 0
0.086666666 -0.0216666665 0
0.0833333358 -0.0216666665 0
0.0799999982 -0.0216666665 0
0.0766666681 -0.0216666665 0
0.0733333305 -0.0216666665 0
0.0700000003 -0.0216666665 0
0.0666666701 -0.0216666665 0
0.0633333325 -0.0216666665 0
0.0599999987 -0.0216666665 0
0.0566666685 -0.0216666665 0
0.0533333346 -0.0216666665 0
0.0500000007 -0.0216666665 0
0.0466666669 -0.0216666665 0
0.043333333 -0.0216666665 0
0.0399999991 -0.0216666665 0
0.0366666652 -0.0216666665 0
0.0333333351 -0.0216666665 0
0.0299999993 -0.0216666665 0
0.0266666673 -0.0216666665 0
0.0233333334 -0.0216666665 0
0.0199999996 -0.0216666665 0
0.0166666675 -0.0216666665 0
0.0133333337 -0.0216666665 0
0.00999999978 -0.0216666665 0
0.00666666683 -0.0216666665 0
0.00333333341 -0.0216666665 0
0.0 -0.0216666665 0
0.100000001 -0.0250000004 0
0.0966666639 -0.0250000004 0
0.0933333337 -0.0250000004 0
0.0900000036 -0.0250000004 0
0.086666666 -0.0250000004 0
0.0833333358 -0.0250000004 0
0.0799999982 -0.0250000004 0
0.0766666681 -0.0250000004 0
0.0733333305 -0.0250000004 0
0.0700000003 -0.0250000004 0
0.0666666701 -0.0250000004 0
0.0633333325 -0.0250000004 0
0.0599999987 -0.0250000004 0
0.0566666685 -0.0250000004 0
0.0533333346 -0.0250000004 0
0.0500000007 -0.0250000004 0
0.0466666669 -0.0250000004 0
0.043333333 -0.0250000004 0
0.0399999991 -0.0250000004 0
0.0366666652 -0.0250000004 0
0.0333333351 -0.0250000004 0
0.0299999993 -0.0250000004 0
0.0266666673 -0.0250000004 0
0.0233333334 -0.0250000004 0
0.0199999996 -0.0250000004 0
0.0166666675 -0.0250000004 0
0.0133333337 -0.0250000004 0
0.00999999978 -0.0250000004 0
0.00666666683 -0.0250000004 0
0.00333333341 -0.0250000004 0
0.0 -0.0250000004 0
0.100000001 -0.0283333343 0
0.0966666639 -0.0283333343 0
0.0933333337 -0.0283333343 0
0.0900000036 -0.0283333343 0
0.086666666 -0.0283333343 0
0.0833333358 -0.0283333343 0
0.0799999982 -0.0283333343 0
0.0766666681 -0.0283333343 0
0.0733333305 -0.0283333343 0
0.0700000003 -0.0283333343 0
0.0666666701 -0.0283333343 0
0.0633333325 -0.0283333343 0
0.0599999987 -0.0283333343 0
0.0566666685 -0.0283333343 0
0.0533333346 -0.0283333343 0
0.0500000007 -0.0283333343 0
0.0466666669 -0.0283333343 0
0.043333333 -0.0283333343 0
0.0399999991 -0.0283333343 0
0.0366666652 -0.0283333343 0
0.0333333351 -0.0283333343 0
0.0299999993 -0.0283333343 0
0.0266666673 -0.0283333343 0
0.0233333334 -0.0283333343 0
0.0199999996 -0.0283333343 0
0.0166666675 -0.0283333343 0
0.0133333337 -0.0283333343 0
0.00999999978 -0.0283333343 0
0.00666666683 -0.0283333343 0
0.00333333341 -0.0283333343 0
0.0 -0.0283333343 0
[...]
POINT_DATA 961
SCALARS Temp float 1
LOOKUP_TABLE default
197.26696105219324
168.0527913431544
155.60919309811027
151.44474440345053
150.2604541107888
149.95699136151774
149.8845358569448
149.8680900009215
149.86449589228934
149.86373315806284
149.86357503372153
149.86354287141384
149.86353643241688
149.86353516069255
149.8635349139937
149.8635348751562
149.86353491399367
149.8635351606925
149.86353643242
149.86354287143075
149.86357503362848
149.86373315822073
149.86449589411393
149.8680900002609
149.88453589394743
149.95699126303316
150.26045436781953
151.44474285397249
155.60919423123482
168.05281340172823
197.26696216690686
168.05281357341292
137.97530471420177
125.1503611562273
120.85363506235205
119.6306698486384
119.3170899210629
119.2421797963337
119.22516968310535
119.22145097109201
119.22066156423276
119.22049786939965
119.22046456685636
119.22045789830986
119.22045658102672
119.22045632545195
119.2204562852128
119.22045632545195
119.22045658102665
119.22045789831314
119.22046456687384
119.22049786930327
119.22066156439611
119.22145097298016
119.22516968242194
119.24217983459525
119.31708981927564
119.63067011412647
120.85363346308627
125.15036232455537
137.9753274345125
168.05281471492663
155.60919351144136
125.15033836881874
112.13947353380722
107.77110216512389
106.52530915440889
106.20536994699809
106.12884196704111
106.11144593606673
106.10763944648035
106.10683078721655
106.10666298904633
106.10662883188608
106.10662198869899
106.10662063629871
106.10662037380426
106.1066203324632
106.10662037380425
106.10662063629862
106.10662198870233
106.106628831904
106.10666298894758
106.10683078738388
106.10763944841356
106.11144593536758
106.12884200614305
106.20536984309739
106.52530942500783
107.77110053786878
112.1394747199978
125.15036139351211
155.60919465803156
151.4447416125545
120.85360885227034
107.77109879489772
103.37136493908082
102.11431005534118
101.79092307397602
101.71345390977251
101.69582082340517
101.69195804721684
101.69113660550431
101.69096600329732
101.69093124780288
101.6909242797826
101.69092290182643
101.69092263421781
101.6909225920533
101.69092263421778
101.69092290182638
101.69092427978605
101.690931247821
101.69096600319668
101.69113660567433
101.69195804917923
101.6958208226961
101.71345394937265
101.79092296889722
102.11431032855552
103.37136329886373
107.77109998830193
120.85363198713226
151.44474275894302
150.2604531339264
119.63064547531093
106.5253076861009
102.11431198142257
100.85264445920204
100.52766615794435
100.44971921549984
100.4319566335694
100.42806127489877
100.42723208079613
100.42705971163409
100.42702456683561
100.42701751535753
100.42701611991193
100.4270158487328
100.42701580598494
100.42701584873284
100.42701611991183
100.42701751536096
100.42702456685402
100.42705971153248
100.4272320809677
100.42806127687813
100.43195663285475
100.44971925535978
100.52766605229937
100.85264473354034
102.11431033622107
106.52530888190019
119.63066864351148
150.26045427997957
149.95699005791562
119.31706520058034
106.20536813344896
101.79092465404034
100.5276658083686
100.20206442616609
100.12390776035953
100.10608280351673
100.10217054993234
100.10133708946924
100.10116369939317
100.10112832036069
100.10112121691921
100.10111981026087
100.1011195367347
100.10111949359663
100.10111953673469
100.10111981026078
100.10112121692266
100.10112832037929
100.10116369929092
100.10133708964167
100.10217055192092
100.10608280279926
100.12390780033763
100.20206432028723
100.52766608311556
101.79092300720583
106.20536932993582
119.31708837773364
149.95699120385842
149.88453464560075
119.24215516883426
106.12884025059431
101.71345558883579
100.44971896489778
100.12390785976667
100.04567170408568
100.0278204214204
100.02390037119388
100.02306479338499
100.02289086539909
100.02285535666114
100.02284822321418
100.02284680984583
100.02284653487202
100.02284649148808
100.02284653487202
100.02284680984572
100.02284822321766
100.02285535667971
100.02289086529657
100.02306479355796
100.02390037318685
100.02782042070179
100.04567174411056
100.12390775380416
100.44971923977359
101.7134539415298
106.12884144725992
119.24217834820588
149.88453579151513
149.8680887537241
119.22514501797534
106.11144418166323
101.69582246421938
100.4319563443071
100.1060828642038
100.0278203826244
100.00995936424334
100.00603612554411
100.00519960479218
100.00502541963618
100.00498984509396
100.00498269564336
100.00498127854041
100.00498100273147
100.00498095920199
100.00498100273148
100.00498127854033
100.00498269564676
100.00498984511262
100.00502541953354
100.00519960496547
100.0060361275389
100.00995936352427
100.02782042266546
100.10608275821473
100.43195661921919
101.69582081678939
106.11144537837224
119.22516819786571
149.86808989963208
149.8644946456829
119.22142630644963
106.107637692689
101.6919596887
100.42806098627294
100.10217061127453
100.02390033304609
100.00603612619824
100.00211173081222
100.0012748342847
100.00110053798616
100.00106493297984
100.00105777567461
100.00105635664524
100.00105608038693
100.00105603677694
100.00105608038697
100.00105635664515
100.0010577756782
100.00106493299845
100.00110053788336
100.00127483445806
100.00211173280765
100.00603612547899
100.02390037309213
100.10217050527807
100.4280612611944
101.6919580412396
106.10763888940801
119.22144948645614
149.86449579158983
149.8637319092015
119.22063689722978
106.10682903103245
101.69113824456929
100.42723178972135
100.10133714835487
100.02306475277271
100.00519960298084
100.0012748318183
100.00043780105875
100.00026346141316
100.00022784357407
100.00022068273296
100.0002192627853
100.00021898630243
100.00021894265068
100.00021898630243
100.00021926278534
100.00022068273637
100.00022784359271
100.00026346131037
100.00043780123202
100.00127483381397
100.00519960226147
100.02306479282008
100.10133704235633
100.42723206464518
101.69113659710159
106.10683022775373
119.22066007726151
149.86373305510799
149.86357378473875
119.22047320226534
106.10666123273268
101.69096764223275
100.42705942042653
100.10116375814606
100.022890824653
100.00502541769117
100.00110053538586
100.00026346127942
100.00008910634442
100.00005348359068
100.00004632129271
100.00004490094184
100.00004462435477
100.0000445806829
100.00004462435466
100.00004490094173
100.00004632129611
100.00005348360935
100.00008910624157
100.00026346145272
100.00110053738156
100.00502541697178
100.02289086470068
100.10116365214711
100.42705969535083
101.69096599476372
106.10666242945452
119.22049638230233
149.86357493064526
149.86354162251538
119.2204398998083
106.106627075662
101.69093288682969
100.42702427571997
100.1011283792063
100.02285531600786
100.00498984324216
100.00106493047274
100.00022784353345
100.00005348368397
100.00001785921496
100.00001069636758
100.00000927585391
100.000008999222
100.00000895554126
100.00000899922198
100.00000927585371
100.00001069637108
100.00001785923358
100.00005348358107
100.00022784370682
100.00106493246844
100.00498984252266
100.02285535605579
100.10112827320715
100.4270245506445
101.69093123936035
106.10662827238377
119.22046307984634
149.86354276842187
149.86353518350867
119.22043323125145
106.10662023246456
101.69092591879917
100.42701722423118
100.10112127575408
100.02284818255018
100.00498269378072
100.00105777315679
100.0002206826816
100.0000463213752
100.00001069635681
100.00000353331954
100.0000021127452
100.0000018360956
100.00000179241117
100.00000183609563
100.00000211274516
100.00000353332308
100.00001069637551
100.0000463212723
100.00022068285487
100.00105777515245
100.00498269306132
100.02284822259813
100.10112116975496
100.42701749915574
101.69092427132966
106.10662142918638
119.22045641128969
149.86353632941513
149.86353391178187
119.22043191396565
106.10661888006157
101.69092454084021
100.42701582878281
100.10111986909298
100.02284676917898
100.00498127667498
100.00105635412459
100.00021926273128
100.00004490102154
100.00000927584028
100.00000211274235
100.00000069214727
100.00000041549129
100.00000037180541
100.0000004154913
100.00000069214718
100.00000211274586
100.00000927585896
100.00004490091871
100.00021926290462
100.0010563561203
100.00498127595557
100.02284680922683
100.10111976309383
100.42701610370743
101.69092289337077
106.10662007678343
119.22045509400397
149.86353505768844
149.86353366508317
119.22043165839106
106.1066186175673
101.69092427323177
100.42701555760388
100.10111959556704
100.02284649420545
100.0049810008662
100.00105607786647
100.00021898624847
100.00004462443457
100.00000899920866
100.00000183609302
100.00000041549148
100.00000013883331
100.000000095147
100.00000013883331
100.00000041549141
100.00000183609654
100.0000089992273
100.00004462433179
100.00021898642186
100.00105607986222
100.00498100014674
100.02284653425329
100.10111948956785
100.42701583252851
101.69092262576233
106.10661981428912
119.22045483842943
149.8635348109897
149.86353362624573
119.22043161815199
106.10661857622631
101.6909242310673
100.42701551485611
100.10111955242908
100.02284645082158
100.00498095733677
100.0010560342565
100.00021894259683
100.0000445807629
100.00000895552795
100.0000017924087
100.00000037180567
100.00000009514703
100.00000005146056
100.00000009514709
100.00000037180564
100.00000179241219
100.00000895554663
100.00004458066007
100.00021894277023
100.00105603625224
100.0049809566174
100.02284649086941
100.10111944642989
100.42701578978077
101.69092258359778
106.10661977294814
119.22045479819036
149.8635347721523
149.86353366508314
119.2204316583911
106.10661861756729
101.69092427323181
100.42701555760388
100.10111959556708
100.02284649420545
100.0049810008663
100.00105607786651
100.00021898624848
100.00004462443465
100.00000899920867
100.00000183609306
100.00000041549158
100.00000013883341
100.000000095147
100.00000013883339
100.00000041549147
100.00000183609654
100.0000089992273
100.00004462433184
100.00021898642194
100.00105607986232
100.00498100014684
100.02284653425338
100.10111948956794
100.42701583252851
101.69092262576238
106.10661981428919
119.22045483842953
149.86353481098973
149.86353391178204
119.22043191396585
106.10661888006172
101.69092454084041
100.42701582878303
100.10111986909313
100.02284676917914
100.00498127667511
100.0010563541247
100.00021926273143
100.00004490102177
100.00000927584054
100.00000211274256
100.00000069214751
100.00000041549151
100.00000037180568
100.00000041549154
100.00000069214735
100.00000211274609
100.00000927585904
100.00004490091885
100.00021926290475
100.00105635612053
100.00498127595581
100.02284680922709
100.101119763094
100.42701610370769
101.69092289337094
106.10662007678361
119.22045509400425
149.86353505768852
149.8635351835096
119.22043323125243
106.10662023246554
101.69092591880015
100.42701722423219
100.10112127575512
100.0228481825512
100.00498269378176
100.00105777315778
100.00022068268257
100.00004632137617
100.00001069635796
100.00000353332062
100.00000211274629
100.00000183609663
100.00000179241233
100.00000183609676
100.00000211274624
100.00000353332402
100.00001069637656
100.00004632127333
100.00022068285598
100.00105777515355
100.00498269306243
100.02284822259911
100.10112116975598
100.4270174991568
101.69092427133077
106.10662142918748
119.22045641129077
149.86353632941615
149.86354162252067
119.22043989981375
106.1066270756677
101.69093288683548
100.42702427572576
100.10112837921204
100.02285531601365
100.004989843248
100.00106493047858
100.00022784353928
100.0000534836898
100.00001785922083
100.00001069637354
100.00000927585978
100.00000899922797
100.00000895554719
100.00000899922794
100.00000927585961
100.00001069637706
100.00001785923952
100.00005348358701
100.00022784371271
100.00106493247439
100.00498984252854
100.02285535606156
100.10112827321296
100.42702455065026
101.69093123936612
106.10662827238959
119.22046307985192
149.86354276842724
149.86357378480992
119.22047320233906
106.1066612328084
101.69096764230956
100.42705942050404
100.10116375822416
100.02289082473139
100.00502541776972
100.00110053546436
100.000263461358
100.00008910642302
100.00005348366932
100.00004632137131
100.00004490102056
100.00004462443336
100.00004458076155
100.0000446244333
100.00004490102042
100.00004632137478
100.00005348368799
100.00008910632026
100.00026346153132
100.00110053746023
100.00502541705029
100.02289086477911
100.10116365222517
100.42705969542835
101.69096599484047
106.10666242953015
119.22049638237608
149.86357493071648
149.86373190912067
119.22063689714619
106.10682903094695
101.6911382444821
100.42723178963334
100.10133714826644
100.02306475268406
100.00519960289213
100.00127483172945
100.00043780096996
100.0002634613244
100.00022784348522
100.00022068264413
100.00021926269655
100.00021898621357
100.00021894256183
100.00021898621357
100.00021926269652
100.0002206826477
100.00022784350395
100.0002634612216
100.00043780114338
100.00127483372519
100.0051996021728
100.0230647927315
100.10133704226791
100.4272320645572
101.69113659701459
106.10683022766807
119.22066007717785
149.86373305502732
149.86449464723512
119.22142630805585
106.10763769433353
101.69195969036943
100.42806098795683
100.10217061296632
100.02390033474155
100.00603612789531
100.00211173250983
100.00127483598256
100.00110053968409
100.00106493467771
100.00105777737252
100.00105635834309
100.00105608208489
100.0010560384748
100.00105608208486
100.00105635834313
100.00105777737612
100.0010649346964
100.00110053958129
100.0012748361559
100.00211173450535
100.00603612717605
100.02390037478764
100.10217050696984
100.42806126287843
101.69195804290905
106.10763889105266
119.22144948806242
149.86449579314214
149.86808875193609
119.22514501612581
106.11144417977127
101.6958224623008
100.43195634237368
100.1060828622629
100.02782038068021
100.00995936229798
100.00603612359834
100.00519960284622
100.00502541769029
100.00498984314795
100.00498269369734
100.00498127659444
100.00498100078539
100.00498095725595
100.00498100078536
100.00498127659434
100.00498269370084
100.00498984316656
100.00502541758745
100.00519960301949
100.00603612559316
100.00995936157891
100.02782042072135
100.10608275627386
100.43195661728588
101.69582081487087
106.11144537648026
119.22516819601623
149.86808989784421
149.88453468877665
119.24215521347908
106.12884029621978
101.71345563504283
100.44971901140809
100.12390790641484
100.04567175078832
100.02782046814194
100.02390041792125
100.02306484011415
100.02289091212859
100.02285540339071
100.02284826994381
100.0228468565754
100.02284658160157
100.02284653821768
100.0228465816016
100.02284685657534
100.02284826994726
100.02285540340937
100.02289091202607
100.02306484028708
100.02390041991426
100.02782046742337
100.04567179081322
100.12390780045232
100.44971928628395
101.71345398773686
106.12884149288541
119.24217839285082
149.8845358346911
149.9569901112565
119.3170652557086
106.20536818971806
101.79092471094191
100.52766586557088
100.20206448349002
100.12390781772567
100.1060828608956
100.10217060731479
100.1013371468527
100.10116375677686
100.10112837774449
100.10112127430295
100.1011198676445
100.10111959411843
100.10111955098036
100.10111959411832
100.10111986764448
100.10112127430634
100.1011283777629
100.10116375667462
100.10133714702523
100.10217060930344
100.10608286017833
100.12390785770383
100.20206437761138
100.52766614031795
101.79092306410743
106.20536938620494
119.31708843286204
149.95699125719938
150.26045280916085
119.63064513985648
106.52530734418104
102.11431163618664
100.85264411253297
100.52766581074884
100.44971886813623
100.43195628615783
100.42806092747458
100.42723173336898
100.42705936420623
100.42702421940756
100.4270171679294
100.42701577248377
100.4270155013046
100.42701545855675
100.42701550130458
100.42701577248373
100.42701716793279
100.42702421942593
100.42705936410445
100.42723173354054
100.4280609294541
100.4319562854432
100.44971890799631
100.52766570510393
100.85264438687136
102.11430999098506
106.52530853998037
119.63066830805703
150.26045395521407
151.44474294866478
120.85361023127244
107.77110019793007
103.37136635315872
102.11431147361219
101.79092449359875
101.71345532978003
101.695822243513
101.69195946734905
101.69113802564229
101.69096742343645
101.69093266794238
101.69092569992223
101.69092432196598
101.69092405435734
101.69092401219275
101.69092405435731
101.69092432196597
101.69092569992557
101.69093266796048
101.69096742333595
101.69113802581224
101.69195946931141
101.69582224280393
101.71345536938023
101.79092438851995
102.11431174682646
103.37136471294161
107.77110139133423
120.85363336613439
151.4447440950533
155.60919116590145
125.15033595002691
112.13947107709143
107.77109969253296
106.52530667630275
106.20536746724319
106.12883948684585
106.11144345576272
106.10763696615096
106.10682830688138
106.10666050871016
106.10662635154961
106.10661950836248
106.10661815596214
106.10661789346769
106.10661785212662
106.10661789346766
106.10661815596204
106.10661950836575
106.10662635156748
106.10666050861124
106.10682830704872
106.1076369680841
106.11144345506351
106.12883952594774
106.20536736334256
106.5253069469016
107.77109806527783
112.139472263282
125.15035897472032
155.60919231249144
168.05283178821674
137.97532347598613
125.15038017044314
120.8536541683286
119.63068898248389
119.31710906240562
119.24219893953506
119.22518882674117
119.22147011482521
119.22068070798694
119.22051701315819
119.22048371061595
119.22047704206949
119.22047572478654
119.22047546921169
119.22047542897248
119.22047546921162
119.22047572478641
119.22047704207282
119.22048371063336
119.22051701306174
119.22068070815004
119.22147011671323
119.22518882605776
119.2421989777965
119.31710896061836
119.63068924797204
120.85365256906287
125.15038133877113
137.9753461962964
168.05283292973036
197.26696180698661
168.0527921150821
155.60919387203722
151.4447451766009
150.26045488357974
149.95699213422245
149.88453662963107
149.868090773604
149.8644966649711
149.86373393074464
149.8635758064031
149.86354364409536
149.86353720509848
149.8635359333741
149.86353568667516
149.86353564783778
149.86353568667522
149.86353593337407
149.86353720510158
149.8635436441122
149.86357580631
149.8637339309023
149.86449666679587
149.86809077294333
149.88453666663364
149.9569920357378
150.26045514061047
151.44474362712285
155.60919500516172
168.05281417365592
197.26696292169999
