# vtk DataFile Version 2.0
Unstructured Grid Example
ASCII
DATASET UNSTRUCTURED_GRID

POINTS 961 float
0.100000001 0.00499999989 0
0.0966666639 0.00499999989 0
0.0933333337 0.00499999989 0
0.0900000036 0.00499999989 0
0.086666666 0.00499999989 0
0.0833333358 0.00499999989 0
0.0799999982 0.00499999989 0
0.0766666681 0.00499999989 0
0.0733333305 0.00499999989 0
0.0700000003 0.00499999989 0
0.0666666701 0.00499999989 0
0.0633333325 0.00499999989 0
0.0599999987 0.00499999989 0
0.0566666685 0.00499999989 0
0.0533333346 0.00499999989 0
0.0500000007 0.00499999989 0
0.0466666669 0.00499999989 0
0.043333333 0.00499999989 0
0.0399999991 0.00499999989 0
0.0366666652 0.00499999989 0
0.0333333351 0.00499999989 0
0.0299999993 0.00499999989 0
0.0266666673 0.00499999989 0
0.0233333334 0.00499999989 0
0.0199999996 0.00499999989 0
0.0166666675 0.00499999989 0
0.0133333337 0.00499999989 0
0.00999999978 0.00499999989 0
0.00666666683 0.00499999989 0
0.00333333341 0.00499999989 0
0.0 0.00499999989 0
0.100000001 0.00166666671 0
0.0966666639 0.00166666671 0
0.0933333337 0.00166666671 0
0.0900000036 0.00166666671 0
0.086666666 0.00166666671 0
0.0833333358 0.00166666671 0
0.0799999982 0.00166666671 0
0.0766666681 0.00166666671 0
0.0733333305 0.00166666671 0
0.0700000003 0.00166666671 0
0.0666666701 0.00166666671 0
0.0633333325 0.00166666671 0
0.0599999987 0.00166666671 0
0.0566666685 0.00166666671 0
0.0533333346 0.00166666671 0
0.0500000007 0.00166666671 0
0.0466666669 0.00166666671 0
0.043333333 0.00166666671 0
0.0399999991 0.00166666671 0
0.0366666652 0.00166666671 0
0.0333333351 0.00166666671 0
0.0299999993 0.00166666671 0
0.0266666673 0.00166666671 0
0.0233333334 0.00166666671 0
0.0199999996 0.00166666671 0
0.0166666675 0.00166666671 0
0.0133333337 0.00166666671 0
0.00999999978 0.00166666671 0
0.00666666683 0.00166666671 0
0.00333333341 0.00166666671 0
0.0 0.00166666671 0
0.100000001 -0.00166666671 0
0.0966666639 -0.00166666671 0
0.0933333337 -0.00166666671 0
0.0900000036 -0.00166666671 0
0.086666666 -0.00166666671 0
0.0833333358 -0.00166666671 0
0.0799999982 -0.00166666671 0
0.0766666681 -0.00166666671 0
0.0733333305 -0.00166666671 0
0.0700000003 -0.00166666671 0
0.0666666701 -0.00166666671 0
0.0633333325 -0.00166666671 0
0.0599999987 -0.00166666671 0
0.0566666685 -0.00166666671 0
0.0533333346 -0.00166666671 0
0.0500000007 -0.00166666671 0
0.0466666669 -0.00166666671 0
0.043333333 -0.00166666671 0
0.0399999991 -0.00166666671 0
0.0366666652 -0.00166666671 0
0.0333333351 -0.00166666671 0
0.0299999993 -0.00166666671 0
0.0266666673 -0.00166666671 0
0.0233333334 -0.00166666671 0
0.0199999996 -0.00166666671 0
0.0166666675 -0.00166666671 0
0.0133333337 -0.00166666671 0
0.00999999978 -0.00166666671 0
0.00666666683 -0.00166666671 0
0.00333333341 -0.00166666671 0
0.0 -0.00166666671 0
0.100000001 -0.00499999989 0
0.0966666639 -0.00499999989 0
0.0933333337 -0.00499999989 0
0.0900000036 -0.00499999989 0
0.086666666 -0.00499999989 0
0.0833333358 -0.00499999989 0
0.0799999982 -0.00499999989 0
0.0766666681 -0.00499999989 0
0.0733333305 -0.00499999989 0
0.0700000003 -0.00499999989 0
0.0666666701 -0.00499999989 0
0.0633333325 -0.00499999989 0
0.0599999987 -0.00499999989 0
0.0566666685 -0.00499999989 0
0.0533333346 -0.00499999989 0
0.0500000007 -0.00499999989 0
0.0466666669 -0.00499999989 0
0.043333333 -0.00499999989 0
0.0399999991 -0.00499999989 0
0.0366666652 -0.00499999989 0
0.0333333351 -0.00499999989 0
0.0299999993 -0.00499999989 0
0.0266666673 -0.00499999989 0
0.0233333334 -0.00499999989 0
0.0199999996 -0.00499999989 0
0.0166666675 -0.00499999989 0
0.0133333337 -0.00499999989 0
0.00999999978 -0.00499999989 0
0.00666666683 -0.00499999989 0
0.00333333341 -0.00499999989 0
0.0 -0.00499999989 0
0.100000001 -0.00833333377 0
0.0966666639 -0.00833333377 0
0.0933333337 -0.00833333377 0
0.0900000036 -0.00833333377 0
0.086666666 -0.00833333377 0
0.0833333358 -0.00833333377 0
0.0799999982 -0.00833333377 0
0.0766666681 -0.00833333377 0
0.0733333305 -0.00833333377 0
0.0700000003 -0.00833333377 0
0.0666666701 -0.00833333377 0
0.0633333325 -0.00833333377 0
0.0599999987 -0.00833333377 0
0.0566666685 -0.00833333377 0
0.0533333346 -0.00833333377 0
0.0500000007 -0.00833333377 0
0.0466666669 -0.00833333377 0
0.043333333 -0.00833333377 0
0.0399999991 -0.00833333377 0
0.0366666652 -0.00833333377 0
0.0333333351 -0.00833333377 0
0.0299999993 -0.00833333377 0
0.0266666673 -0.00833333377 0
0.0233333334 -0.00833333377 0
0.0199999996 -0.00833333377 0
0.0166666675 -0.00833333377 0
0.0133333337 -0.00833333377 0
0.00999999978 -0.00833333377 0
0.00666666683 -0.00833333377 0
0.00333333341 -0.00833333377 0
0.0 -0.00833333377 0
0.100000001 -0.0116666667 0
0.0966666639 -0.0116666667 0
0.0933333337 -0.0116666667 0
0.0900000036 -0.0116666667 0
0.086666666 -0.0116666667 0
0.0833333358 -0.0116666667 0
0.0799999982 -0.0116666667 0
0.0766666681 -0.0116666667 0
0.0733333305 -0.0116666667 0
0.0700000003 -0.0116666667 0
0.0666666701 -0.0116666667 0
0.0633333325 -0.0116666667 0
0.0599999987 -0.0116666667 0
0.0566666685 -0.0116666667 0
0.0533333346 -0.0116666667 0
0.0500000007 -0.0116666667 0
0.0466666669 -0.0116666667 0
0.043333333 -0.0116666667 0
0.0399999991 -0.0116666667 0
0.0366666652 -0.0116666667 0
0.0333333351 -0.0116666667 0
0.0299999993 -0.0116666667 0
0.0266666673 -0.0116666667 0
0.0233333334 -0.0116666667 0
0.0199999996 -0.0116666667 0
0.0166666675 -0.0116666667 0
0.0133333337 -0.0116666667 0
0.00999999978 -0.0116666667 0
0.00666666683 -0.0116666667 0
0.00333333341 -0.0116666667 0
0.0 -0.0116666667 0
0.100000001 -0.0149999997 0
0.0966666639 -0.0149999997 0
0.0933333337 -0.0149999997 0
0.0900000036 -0.0149999997 0
0.086666666 -0.0149999997 0
0.0833333358 -0.0149999997 0
0.0799999982 -0.0149999997 0
0.0766666681 -0.0149999997 0
0.0733333305 -0.0149999997 0
0.0700000003 -0.0149999997 0
0.0666666701 -0.0149999997 0
0.0633333325 -0.0149999997 0
0.0599999987 -0.0149999997 0
0.0566666685 -0.0149999997 0
0.0533333346 -0.0149999997 0
0.0500000007 -0.0149999997 0
0.0466666669 -0.0149999997 0
0.043333333 -0.0149999997 0
0.0399999991 -0.0149999997 0
0.0366666652 -0.0149999997 0
0.0333333351 -0.0149999997 0
0.0299999993 -0.0149999997 0
0.0266666673 -0.0149999997 0
0.0233333334 -0.0149999997 0
0.0199999996 -0.0149999997 0
0.0166666675 -0.0149999997 0
0.0133333337 -0.0149999997 0
0.00999999978 -0.0149999997 0
0.00666666683 -0.0149999997 0
0.00333333341 -0.0149999997 0
0.0 -0.0149999997 0
0.100000001 -0.0183333326 0
0.0966666639 -0.0183333326 0
0.0933333337 -0.0183333326 0
0.0900000036 -0.0183333326 0
0.086666666 -0.0183333326 0
0.0833333358 -0.0183333326 0
0.0799999982 -0.0183333326 0
0.0766666681 -0.0183333326 0
0.0733333305 -0.0183333326 0
0.0700000003 -0.0183333326 0
0.0666666701 -0.0183333326 0
0.0633333325 -0.0183333326 0
0.0599999987 -0.0183333326 0
0.0566666685 -0.0183333326 0
0.0533333346 -0.0183333326 0
0.0500000007 -0.0183333326 0
0.0466666669 -0.0183333326 0
0.043333333 -0.0183333326 0
0.0399999991 -0.0183333326 0
0.0366666652 -0.0183333326 0
0.0333333351 -0.0183333326 0
0.0299999993 -0.0183333326 0
0.0266666673 -0.0183333326 0
0.0233333334 -0.0183333326 0
0.0199999996 -0.0183333326 0
0.0166666675 -0.0183333326 0
0.0133333337 -0.0183333326 0
0.00999999978 -0.0183333326 0
0.00666666683 -0.0183333326 0
0.00333333341 -0.0183333326 0
0.0 -0.0183333326 0
0.100000001 -0.0216666665 0
0.0966666639 -0.0216666665 0
0.0933333337 -0.0216666665 0
0.0900000036 -0.0216666665 0
0.086666666 -0.0216666665 0
0.0833333358 -0.0216666665 0
0.0799999982 -0.0216666665 0
0.0766666681 -0.0216666665 0
0.0733333305 -0.0216666665 0
0.0700000003 -0.0216666665 0
0.0666666701 -0.0216666665 0
0.0633333325 -0.0216666665 0
0.0599999987 -0.0216666665 0
0.0566666685 -0.0216666665 0
0.0533333346 -0.0216666665 0
0.0500000007 -0.0216666665 0
0.0466666669 -0.0216666665 0
0.043333333 -0.0216666665 0
0.0399999991 -0.0216666665 0
0.0366666652 -0.0216666665 0
0.0333333351 -0.0216666665 0
0.0299999993 -0.0216666665 0
0.0266666673 -0.0216666665 0
0.0233333334 -0.0216666665 0
0.0199999996 -0.0216666665 0
0.0166666675 -0.0216666665 0
0.0133333337 -0.0216666665 0
0.00999999978 -0.0216666665 0
0.00666666683 -0.0216666665 0
0.00333333341 -0.0216666665 0
0.0 -0.0216666665 0
0.100000001 -0.0250000004 0
0.0966666639 -0.0250000004 0
0.0933333337 -0.0250000004 0
0.0900000036 -0.0250000004 0
0.086666666 -0.0250000004 0
0.0833333358 -0.0250000004 0
0.0799999982 -0.0250000004 0
0.0766666681 -0.0250000004 0
0.0733333305 -0.0250000004 0
0.0700000003 -0.0250000004 0
0.0666666701 -0.0250000004 0
0.0633333325 -0.0250000004 0
0.0599999987 -0.0250000004 0
0.0566666685 -0.0250000004 0
0.0533333346 -0.0250000004 0
0.0500000007 -0.0250000004 0
0.0466666669 -0.0250000004 0
0.043333333 -0.0250000004 0
0.0399999991 -0.0250000004 0
0.0366666652 -0.0250000004 0
0.0333333351 -0.0250000004 0
0.0299999993 -0.0250000004 0
0.0266666673 -0.0250000004 0
0.0233333334 -0.0250000004 0
0.0199999996 -0.0250000004 0
0.0166666675 -0.0250000004 0
0.0133333337 -0.0250000004 0
0.00999999978 -0.0250000004 0
0.00666666683 -0.0250000004 0
0.00333333341 -0.0250000004 0
0.0 -0.0250000004 0
0.100000001 -0.0283333343 0
0.0966666639 -0.0283333343 0
0.0933333337 -0.0283333343 0
0.0900000036 -0.0283333343 0
0.086666666 -0.0283333343 0
0.0833333358 -0.0283333343 0
0.0799999982 -0.0283333343 0
0.0766666681 -0.0283333343 0
0.0733333305 -0.0283333343 0
0.0700000003 -0.0283333343 0
0.0666666701 -0.0283333343 0
0.0633333325 -0.0283333343 0
0.0599999987 -0.0283333343 0
0.0566666685 -0.0283333343 0
0.0533333346 -0.0283333343 0
0.0500000007 -0.0283333343 0
0.0466666669 -0.0283333343 0
0.043333333 -0.0283333343 0
0.0399999991 -0.0283333343 0
0.0366666652 -0.0283333343 0
0.0333333351 -0.0283333343 0
0.0299999993 -0.0283333343 0
0.0266666673 -0.0283333343 0
0.0233333334 -0.0283333343 0
0.0199999996 -0.0283333343 0
0.0166666675 -0.0283333343 0
0.0133333337 -0.0283333343 0
0.00999999978 -0.0283333343 0
0.00666666683 -0.0283333343 0
0.00333333341 -0.0283333343 0
0.0 -0.0283333343 0
[...]
POINT_DATA 961
SCALARS Temp float 1
LOOKUP_TABLE default
226.68258341746568
195.60752611566198
178.3298456421006
170.26500223627934
167.03370991743876
165.89187739656975
165.52688645230046
165.41913941538502
165.38929212875848
165.38143928523033
165.3794588141521
165.37897664777714
165.37886270338632
165.37883646317704
165.37883060654966
165.37882958248613
165.37883060654931
165.37883646317545
165.3788627034446
165.37897664804333
165.37945881291242
165.38143928696826
165.3892921450264
165.41913941044163
165.5268866569811
165.8918769774745
167.03371071075603
170.2649987047679
178.3298474129623
195.60755223951
226.68258341907583
195.60755386483612
163.53661580530655
145.69920104564721
137.36953174484043
134.03063132008532
132.8502697025765
132.4728180155175
132.3613549568907
132.3304691972144
132.3223410374861
132.32029066769758
132.31979138358807
132.3196733728733
132.31964619187812
132.31964012441608
132.31963906337887
132.31964012441568
132.31964619187642
132.31967337293375
132.31979138386353
132.32029066641397
132.32234103928516
132.33046921404977
132.36135495177575
132.47281822721297
132.8502692692609
134.03063213996444
137.36952809649554
145.69920287415252
163.53664277013078
195.60755386533592
178.32984822592377
145.69917455998427
127.53722582115148
119.04789287870183
115.64141216533598
114.43591211599536
114.05005252507358
113.93600861526308
113.90438359121602
113.8960552469938
113.89395311549163
113.89344095184742
113.89331983853151
113.89329193079853
113.8932856987088
113.89328460857872
113.89328569870838
113.89329193079688
113.8933198385935
113.89344095212999
113.89395311417536
113.89605524883764
113.90438360845845
113.93600861002685
114.0500527415548
114.43591167325015
115.64141300216212
119.04788915834945
127.53722768353946
145.69920200364496
178.32984822407576
170.26499869164198
137.36949868258552
119.04788640005405
110.47592644670682
107.03250084238215
105.81251217868753
105.42157172085484
105.30590313600675
105.27379622426918
105.26533345115362
105.26319566237515
105.26267442860717
105.26255108798227
105.26252264967316
105.26251629562752
105.26251518372197
105.26251629562714
105.26252264967147
105.26255108804537
105.26267442889484
105.26319566103622
105.26533345302774
105.27379624177959
105.30590313069229
105.42157194027422
105.81251173037805
107.03250168868016
110.47592268793994
119.04788827940394
137.36952635654657
170.26499868786007
167.03371072502702
134.03060265210206
115.64141026086541
107.032505493347
103.57149313684732
102.34415491879382
101.95047971073998
101.83388956467094
101.80149666315205
101.79295095862996
101.79079042944785
101.79026324318704
101.79013840403718
101.79010960092147
101.79010316144026
101.79010203407807
101.7901031614399
101.7901096009197
101.79013840410109
101.79026324347818
101.79079042809428
101.79295096052303
101.80149668082387
101.83388955931034
101.95047993177391
102.34415446757352
103.57149398777737
107.03250171677924
115.64141214752716
134.03063042128738
167.03371072021963
165.89187713294936
132.85023989013982
114.43590907665502
105.81251569301097
102.3441537663342
101.11352672632927
100.71854250630031
100.60148299556086
100.56893621280393
100.56034370847397
100.55816980799345
100.55763899514902
100.55751321442852
100.557484175846
100.55747767993238
100.55747654219459
100.55747767993203
100.55748417584431
100.55751321449296
100.5576389954422
100.55816980663117
100.56034371037785
100.56893623056396
100.6014829901756
100.71854272812656
101.1135262737578
102.3441546192574
105.81251190919882
114.43591096608353
132.8502676939946
165.89187712773233
165.5268866314994
132.47278864876054
114.05004995226778
105.42157571185106
101.95047903481887
100.71854298553005
100.32299983564107
100.20572576606448
100.17310408691917
100.16448749844469
100.1623063729929
100.16177351563647
100.1616471841097
100.16161800326518
100.1616114723005
100.16161032799322
100.16161147230022
100.16161800326351
100.16164718417443
100.16177351593069
100.16230637162577
100.16448750035437
100.17310410472314
100.20572576066732
100.32300005781516
100.71854253239893
101.95047988850555
105.42157192540849
114.0500518426358
132.472816463999
165.52688662614727
165.41913939883722
132.36132538398465
113.9360058349603
105.30590691800866
101.83388867708229
100.60148326276986
100.20572555345623
100.0883631560801
100.05570849318495
100.04708061846871
100.04489591373687
100.04436199261464
100.04423536189552
100.04420610080508
100.04419954941953
100.04419840119817
100.04419954941909
100.04420610080321
100.04423536196046
100.0443619929095
100.04489591236737
100.04708062038105
100.05570851100885
100.08836315067768
100.2057257757679
100.60148280942963
101.83388953103324
105.30590313069888
113.9360077256205
132.36135320266365
165.41913939344616
165.38929212086208
132.33043963222093
113.90438081995998
105.27380001586417
101.80149578490565
100.56893648954221
100.17310388377985
100.05570850271484
100.02304065134989
100.01440795698353
100.01222162791386
100.01168719683427
100.01156041551899
100.01153111226033
100.01152454973949
100.01152339932885
100.011524549739
100.01153111225847
100.0115604155839
100.01168719712943
100.01222162654327
100.01440795889705
100.02304066918175
100.05570849731022
100.17310410614074
100.56893603613081
101.80149663894046
105.27379622829032
113.9043827107049
132.33046745187258
165.38929211546073
165.38143925731015
132.32231145149083
113.89605245447744
105.26533722126838
101.79295005860423
100.5603439633634
100.16448727337327
100.04708060605738
100.01440793502992
100.00577335875484
100.003586353725
100.00305169749974
100.00292484603031
100.00289552216256
100.00288895396936
100.0028878024114
100.0028889539689
100.00289552216077
100.00292484609538
100.00305169779504
100.00358635235375
100.00577336066873
100.01440795286467
100.04708060065192
100.16448749575041
100.5603435099296
101.79295091266393
105.2653334336194
113.89605434524559
132.32233927140317
165.3814392519062
165.37945878472888
132.3202610800747
113.89395032137008
105.26319943088713
101.79078952777454
100.5581700612363
100.16230614626033
100.04489589966651
100.01222160429903
100.00358635206447
100.00139908824133
100.00086434036002
100.0007374586483
100.00070812542099
100.00070155453194
100.00070040241147
100.00070155453152
100.00070812541911
100.00073745871329
100.00086434065535
100.00139908686992
100.00358635397858
100.01222162213482
100.04489589426073
100.16230636864253
100.55816960779589
101.79079038184113
105.26319564321776
113.89395221214424
132.32028890005364
165.3794587793244
165.37897661950723
132.31976179714172
113.89343815894823
105.26267819837011
101.7902623427714
100.55763924966078
100.16177329017482
100.04436197981872
100.01168717449481
100.00305169711552
100.00086434163654
100.0003295592419
100.0002026654499
100.00017332827242
100.000166756189
100.00016560381096
100.00016675618858
100.00017332827049
100.00020266551489
100.00032955953716
100.00086434026515
100.0030516990296
100.01168719233091
100.04436197441288
100.1617735125585
100.55763879621854
101.79026319683989
105.26267441069551
113.89344004972376
132.31978961713716
165.3789766141027
165.37886267496899
132.31964378627003
113.893317045475
105.26255485758718
101.79013750345989
100.55751346877823
100.16164695848484
100.04423534893643
100.0115603930159
100.00292484548268
100.00073745976141
100.00020266528645
100.00007576701049
100.00004642828178
100.00003985570517
100.00003870321699
100.00003985570476
100.00004642827994
100.00007576707549
100.00020266558174
100.00073745838986
100.0029248473968
100.01156041085214
100.04423534353056
100.16164718086881
100.55751301533553
101.79013835752889
105.26255106991128
113.89331893625105
132.31967160626942
165.37886266956437
165.37883643471224
132.31961660522464
113.89328913769147
105.26252641922699
101.79010870029201
100.55748443014343
100.1616177775876
100.0442060877931
100.01153108970439
100.00289552156197
100.00070812648109
100.0001733280559
100.0000464282288
100.00001708893303
100.00001051616675
100.00000936363472
100.0000105161662
100.00001708893119
100.00004642829384
100.00017332835131
100.0007081251096
100.00289552347614
100.01153110754065
100.04420608238726
100.16161799997163
100.55748397670054
101.79010955436114
105.26252263155081
113.89329102846763
132.31964442522496
165.37883642930763
165.37883057808907
132.31961053776683
113.89328290560633
105.26252006518605
101.79010226081543
100.55747793423441
100.1616112466276
100.04419953641226
100.01152452718826
100.00288895337344
100.00070155559675
100.00016675597735
100.00003985565687
100.00001051617136
100.00000394333853
100.00000279079067
100.00000394333814
100.00001051616951
100.00003985572194
100.00016675627262
100.00070155422529
100.00288895528769
100.01152454502454
100.04419953100637
100.16161146901167
100.55747748079155
101.79010311488459
105.26251627750979
113.89328479638243
132.3196383577674
165.37883057268445
165.3788295540272
132.31960947673133
113.89328181547788
105.26251895328231
101.79010113345505
100.5574767964984
100.16161010232203
100.04419838819267
100.01152337677931
100.00288780181722
100.00070040347804
100.00016560360103
100.00003870317045
100.00000936364103
100.00000279079235
100.00000163824065
100.00000279079205
100.00000936363932
100.00003870323543
100.00016560389629
100.00070040210656
100.0028878037314
100.01152339461562
100.04419838278682
100.16161032470613
100.55747634305551
101.79010198752414
105.26251516560598
113.89328370625401
132.31963729673183
165.37882954862266
165.3788305780901
132.3196105377679
113.89328290560738
105.26252006518722
101.79010226081662
100.55747793423558
100.16161124662874
100.04419953641343
100.01152452718937
100.00288895337457
100.0007015555979
100.00016675597846
100.00003985565802
100.00001051617245
100.0000039433396
100.00000279079178
100.00000394333928
100.00001051617072
100.00003985572302
100.00016675627371
100.00070155422631
100.00288895528874
100.01152454502565
100.04419953100754
100.16161146901283
100.55747748079271
101.79010311488571
105.26251627751091
113.8932847963835
132.31963835776844
165.37883057268553
165.37883643471636
132.319616605229
113.89328913769586
105.2625264192315
101.79010870029656
100.55748443014808
100.16161777759223
100.04420608779773
100.01153108970898
100.00289552156659
100.00070812648575
100.00017332806051
100.00004642823338
100.00001708893753
100.00001051617126
100.0000093636392
100.00001051617086
100.00001708893582
100.0000464282984
100.00017332835586
100.00070812511417
100.00289552348073
100.01153110754521
100.04420608239188
100.16161799997629
100.5574839767052
101.79010955436571
105.26252263155533
113.89329102847205
132.3196444252293
165.37883642931183
165.3788626749869
132.31964378628862
113.89331704549414
105.26255485760662
101.79013750347964
100.5575134687982
100.16164695850483
100.04423534895652
100.011560393036
100.00292484550273
100.00073745978148
100.00020266530655
100.00007576703051
100.00004642830177
100.00003985572518
100.00003870323701
100.00003985572484
100.00004642830007
100.00007576709557
100.0002026656019
100.00073745841
100.0029248474169
100.01156041087222
100.04423534355061
100.1616471808889
100.55751301535541
101.79013835754861
105.26255106993082
113.89331893627025
132.31967160628818
165.37886266958242
165.37897661959158
132.31976179722895
113.89343815903776
105.2626781984613
101.79026234286377
100.5576392497538
100.16177329026827
100.04436197991234
100.0116871745885
100.00305169720926
100.00086434173039
100.0003295593356
100.00020266554358
100.00017332836606
100.00016675628271
100.00016560390476
100.00016675628237
100.00017332836431
100.00020266560874
100.00032955963103
100.00086434035889
100.00305169912346
100.01168719242463
100.04436197450647
100.16177351265192
100.55763879631151
101.79026319693223
105.26267441078684
113.89344004981358
132.31978961722456
165.37897661418714
165.37945878567442
132.32026108105367
113.89395032237402
105.26319943190832
101.79078952880693
100.55817006227547
100.16230614730318
100.0448959007111
100.0122216053445
100.00358635311036
100.00139908928733
100.00086434140609
100.00073745969435
100.00070812646693
100.00070155557795
100.00070040345744
100.00070155557755
100.00070812646516
100.00073745975935
100.00086434170139
100.001399087916
100.00358635502444
100.01222162318035
100.0448958953054
100.16230636968528
100.558169608835
101.79079038287365
105.26319564423912
113.8939522131483
132.32028890103282
165.37945878027014
165.38143925641288
132.32231145056207
113.89605245352556
105.26533722030086
101.79295005762684
100.56034396238034
100.16448727238729
100.04708060506994
100.01440793404183
100.00577335776651
100.00358635273662
100.00305169651142
100.00292484504193
100.00289552117424
100.00288895298087
100.00288780142289
100.00288895298043
100.00289552117236
100.0029248451068
100.00305169680661
100.00358635136541
100.00577335968048
100.01440795187668
100.04708059966453
100.16448749476451
100.56034350894656
101.79295091168663
105.26533343265197
113.8960543442938
132.32233927047457
165.3814392510091
165.3892921347336
132.33043964657634
113.90438083466266
105.2738000307957
101.80149579997492
100.56893650468693
100.17310389896222
100.05570851791421
100.02304066655627
100.01440797219254
100.01222164312388
100.0116872120446
100.01156043072933
100.01153112747066
100.01152456494981
100.01152341453916
100.01152456494935
100.01153112746874
100.01156043079409
100.01168721233957
100.01222164175309
100.01440797410604
100.02304068438808
100.05570851250964
100.17310412132322
100.56893605127561
101.80149665400991
105.27379624322202
113.90438272540777
132.33046746622813
165.38929212933238
165.41913938586308
132.36132537056096
113.93600582122065
105.3059069040664
101.83388866302245
100.60148324864808
100.20572553930522
100.0883631419164
100.0557084790164
100.04708060429826
100.04489589956593
100.04436197844339
100.04423534772431
100.04420608663378
100.04419953524813
100.04419838702675
100.04419953524771
100.04420608663189
100.044235347789
100.04436197873812
100.0448958981963
100.04708060621059
100.05570849684003
100.08836313651389
100.2057257616168
100.60148279530789
101.83388951697339
105.30590311675678
113.93600771188105
132.36135318924008
165.41913938047193
165.52688687047336
132.47278889592502
114.05005020502075
105.42157596803588
101.95047929289015
100.71854324452755
100.32300009504554
100.20572602562991
100.17310434654247
100.16448775808716
100.16230663264106
100.16177377528645
100.16164744376012
100.16161826291568
100.16161173195104
100.16161058764368
100.16161173195066
100.16161826291393
100.16164744382476
100.16177377558061
100.16230663127395
100.16448775999672
100.17310436434632
100.2057260202327
100.32300031721967
100.71854279139643
101.9504801465769
105.42157218159346
114.05005209538885
132.4728167111635
165.52688686512138
165.89187735110025
132.8502401156753
114.4359093070525
105.81251592624567
102.34415400102927
101.11352696168782
100.71854274192678
100.60148323128443
100.56893644855973
100.5603439442396
100.55817004376208
100.55763923091841
100.557513450198
100.55748441161566
100.55747791570192
100.55747677796413
100.55747791570157
100.5574844116139
100.55751345026243
100.55763923121147
100.55817004239977
100.56034394614349
100.56893646631981
100.60148322589922
100.718542963753
101.11352650911648
102.34415485395262
105.81251214243362
114.43591119648114
132.8502679195301
165.89187734588327
167.0337097079482
134.03060160093779
115.6414091878923
107.03250440813014
103.57149204560541
102.34415382493879
101.95047861587524
101.83388846945361
101.80149556782177
101.79294986326605
101.79078933407439
101.79026214781113
101.79013730866053
101.79010850554467
101.79010206606348
101.79010093870127
101.79010206606313
101.79010850554286
101.79013730872447
101.79026214810213
101.79078933272079
101.792949865159
101.8014955854935
101.83388846409296
101.95047883690924
102.34415337371854
103.57149289653545
107.03250063156237
115.64141107455417
134.03062937012325
167.03370970314091
170.2650016598457
137.3695017488457
119.04788952648707
110.47592960503805
107.03250401537896
105.81251535760308
105.42157490190297
105.30590631775384
105.27379940622797
105.26533663317257
105.26319884441031
105.26267761064648
105.2625542700226
105.26252583171375
105.26251947766829
105.26251836576277
105.26251947766788
105.2625258317121
105.2625542700857
105.26267761093413
105.26319884307131
105.26533663504668
105.27379942373837
105.30590631243918
105.4215751213223
105.81251490929354
107.03250486167694
110.47592584627111
119.0478914058369
137.36952942280675
170.26500165606387
178.32984421417834
145.69917041704886
127.53722160003773
119.04788861771353
115.64140788679506
114.43590783067883
114.05004823741835
113.93600432687123
113.904379302609
113.89605095832744
113.89394882680968
113.8934366631616
113.89331554984463
113.89328764211147
113.89328141002174
113.8932803198917
113.89328141002142
113.89328764210987
113.89331554990663
113.89343666344423
113.89394882549347
113.8960509601713
113.90437931985136
113.93600432163511
114.05004845389956
114.43590738793371
115.6414087236211
119.04788489736113
127.53722346242574
145.69919786070977
178.32984421233033
195.60757563981974
163.536638281543
145.69922392160558
137.3695548132971
134.03065446822453
132.85029287974703
132.4728412022229
132.36137814647776
132.3304923876161
132.32236422810587
132.32031385837314
132.31981457427756
132.3196965635661
132.31966938257165
132.31966331510972
132.31966225407265
132.31966331510947
132.31966938257
132.31969656362654
132.31981457455305
132.32031385708967
132.32236422990502
132.33049240445143
132.36137814136296
132.47284141391836
132.85029244643138
134.03065528810382
137.3695511649522
145.6992257501108
163.53666524636668
195.60757564031954
226.6825833192491
195.6075260135594
178.32984553678838
170.26500212905003
167.0337098093675
165.89187728820633
165.52688634385024
165.41913930691132
165.38929202027887
165.38143917674932
165.37945870567086
165.3789765392959
165.37886259490497
165.37883635469572
165.37883049806825
165.37882947400482
165.37883049806803
165.3788363546942
165.3788625949633
165.37897653956193
165.3794587044312
165.3814391784873
165.38929203654678
165.41913930196804
165.52688654853105
165.8918768691111
167.0337106026848
170.26499859753847
178.3298473076502
195.60755213740762
226.68258332085918
