# vtk DataFile Version 2.0
Unstructured Grid Example
ASCII
DATASET UNSTRUCTURED_GRID

POINTS 961 float
0.100000001 0.00499999989 0
0.0966666639 0.00499999989 0
0.0933333337 0.00499999989 0
0.0900000036 0.00499999989 0
0.086666666 0.00499999989 0
0.0833333358 0.00499999989 0
0.0799999982 0.00499999989 0
0.0766666681 0.00499999989 0
0.0733333305 0.00499999989 0
0.0700000003 0.00499999989 0
0.0666666701 0.00499999989 0
0.0633333325 0.00499999989 0
0.0599999987 0.00499999989 0
0.0566666685 0.00499999989 0
0.0533333346 0.00499999989 0
0.0500000007 0.00499999989 0
0.0466666669 0.00499999989 0
0.043333333 0.00499999989 0
0.0399999991 0.00499999989 0
0.0366666652 0.00499999989 0
0.0333333351 0.00499999989 0
0.0299999993 0.00499999989 0
0.0266666673 0.00499999989 0
0.0233333334 0.00499999989 0
0.0199999996 0.00499999989 0
0.0166666675 0.00499999989 0
0.0133333337 0.00499999989 0
0.00999999978 0.00499999989 0
0.00666666683 0.00499999989 0
0.00333333341 0.00499999989 0
0.0 0.00499999989 0
0.100000001 0.00166666671 0
0.0966666639 0.00166666671 0
0.0933333337 0.00166666671 0
0.0900000036 0.00166666671 0
0.086666666 0.00166666671 0
0.0833333358 0.00166666671 0
0.0799999982 0.00166666671 0
0.0766666681 0.00166666671 0
0.0733333305 0.00166666671 0
0.0700000003 0.00166666671 0
0.0666666701 0.00166666671 0
0.0633333325 0.00166666671 0
0.0599999987 0.00166666671 0
0.0566666685 0.00166666671 0
0.0533333346 0.00166666671 0
0.0500000007 0.00166666671 0
0.0466666669 0.00166666671 0
0.043333333 0.00166666671 0
0.0399999991 0.00166666671 0
0.0366666652 0.00166666671 0
0.0333333351 0.00166666671 0
0.0299999993 0.00166666671 0
0.0266666673 0.00166666671 0
0.0233333334 0.00166666671 0
0.0199999996 0.00166666671 0
0.0166666675 0.00166666671 0
0.0133333337 0.00166666671 0
0.00999999978 0.00166666671 0
0.00666666683 0.00166666671 0
0.00333333341 0.00166666671 0
0.0 0.00166666671 0
0.100000001 -0.00166666671 0
0.0966666639 -0.00166666671 0
0.0933333337 -0.00166666671 0
0.0900000036 -0.00166666671 0
0.086666666 -0.00166666671 0
0.0833333358 -0.00166666671 0
0.0799999982 -0.00166666671 0
0.0766666681 -0.00166666671 0
0.0733333305 -0.00166666671 0
0.0700000003 -0.00166666671 0
0.0666666701 -0.00166666671 0
0.0633333325 -0.00166666671 0
0.0599999987 -0.00166666671 0
0.0566666685 -0.00166666671 0
0.0533333346 -0.00166666671 0
0.0500000007 -0.00166666671 0
0.0466666669 -0.00166666671 0
0.043333333 -0.00166666671 0
0.0399999991 -0.00166666671 0
0.0366666652 -0.00166666671 0
0.0333333351 -0.00166666671 0
0.0299999993 -0.00166666671 0
0.0266666673 -0.00166666671 0
0.0233333334 -0.00166666671 0
0.0199999996 -0.00166666671 0
0.0166666675 -0.00166666671 0
0.0133333337 -0.00166666671 0
0.00999999978 -0.00166666671 0
0.00666666683 -0.00166666671 0
0.00333333341 -0.00166666671 0
0.0 -0.00166666671 0
0.100000001 -0.00499999989 0
0.0966666639 -0.00499999989 0
0.0933333337 -0.00499999989 0
0.0900000036 -0.00499999989 0
0.086666666 -0.00499999989 0
0.0833333358 -0.00499999989 0
0.0799999982 -0.00499999989 0
0.0766666681 -0.00499999989 0
0.0733333305 -0.00499999989 0
0.0700000003 -0.00499999989 0
0.0666666701 -0.00499999989 0
0.0633333325 -0.00499999989 0
0.0599999987 -0.00499999989 0
0.0566666685 -0.00499999989 0
0.0533333346 -0.00499999989 0
0.0500000007 -0.00499999989 0
0.0466666669 -0.00499999989 0
0.043333333 -0.00499999989 0
0.0399999991 -0.00499999989 0
0.0366666652 -0.00499999989 0
0.0333333351 -0.00499999989 0
0.0299999993 -0.00499999989 0
0.0266666673 -0.00499999989 0
0.0233333334 -0.00499999989 0
0.0199999996 -0.00499999989 0
0.0166666675 -0.00499999989 0
0.0133333337 -0.00499999989 0
0.00999999978 -0.00499999989 0
0.00666666683 -0.00499999989 0
0.00333333341 -0.00499999989 0
0.0 -0.00499999989 0
0.100000001 -0.00833333377 0
0.0966666639 -0.00833333377 0
0.0933333337 -0.00833333377 0
0.0900000036 -0.00833333377 0
0.086666666 -0.00833333377 0
0.0833333358 -0.00833333377 0
0.0799999982 -0.00833333377 0
0.0766666681 -0.00833333377 0
0.0733333305 -0.00833333377 0
0.0700000003 -0.00833333377 0
0.0666666701 -0.00833333377 0
0.0633333325 -0.00833333377 0
0.0599999987 -0.00833333377 0
0.0566666685 -0.00833333377 0
0.0533333346 -0.00833333377 0
0.0500000007 -0.00833333377 0
0.0466666669 -0.00833333377 0
0.043333333 -0.00833333377 0
0.0399999991 -0.00833333377 0
0.0366666652 -0.00833333377 0
0.0333333351 -0.00833333377 0
0.0299999993 -0.00833333377 0
0.0266666673 -0.00833333377 0
0.0233333334 -0.00833333377 0
0.0199999996 -0.00833333377 0
0.0166666675 -0.00833333377 0
0.0133333337 -0.00833333377 0
0.00999999978 -0.00833333377 0
0.00666666683 -0.00833333377 0
0.00333333341 -0.00833333377 0
0.0 -0.00833333377 0
0.100000001 -0.0116666667 0
0.0966666639 -0.0116666667 0
0.0933333337 -0.0116666667 0
0.0900000036 -0.0116666667 0
0.086666666 -0.0116666667 0
0.0833333358 -0.0116666667 0
0.0799999982 -0.0116666667 0
0.0766666681 -0.0116666667 0
0.0733333305 -0.0116666667 0
0.0700000003 -0.0116666667 0
0.0666666701 -0.0116666667 0
0.0633333325 -0.0116666667 0
0.0599999987 -0.0116666667 0
0.0566666685 -0.0116666667 0
0.0533333346 -0.0116666667 0
0.0500000007 -0.0116666667 0
0.0466666669 -0.0116666667 0
0.043333333 -0.0116666667 0
0.0399999991 -0.0116666667 0
0.0366666652 -0.0116666667 0
0.0333333351 -0.0116666667 0
0.0299999993 -0.0116666667 0
0.0266666673 -0.0116666667 0
0.0233333334 -0.0116666667 0
0.0199999996 -0.0116666667 0
0.0166666675 -0.0116666667 0
0.0133333337 -0.0116666667 0
0.00999999978 -0.0116666667 0
0.00666666683 -0.0116666667 0
0.00333333341 -0.0116666667 0
0.0 -0.0116666667 0
0.100000001 -0.0149999997 0
0.0966666639 -0.0149999997 0
0.0933333337 -0.0149999997 0
0.0900000036 -0.0149999997 0
0.086666666 -0.0149999997 0
0.0833333358 -0.0149999997 0
0.0799999982 -0.0149999997 0
0.0766666681 -0.0149999997 0
0.0733333305 -0.0149999997 0
0.0700000003 -0.0149999997 0
0.0666666701 -0.0149999997 0
0.0633333325 -0.0149999997 0
0.0599999987 -0.0149999997 0
0.0566666685 -0.0149999997 0
0.0533333346 -0.0149999997 0
0.0500000007 -0.0149999997 0
0.0466666669 -0.0149999997 0
0.043333333 -0.0149999997 0
0.0399999991 -0.0149999997 0
0.0366666652 -0.0149999997 0
0.0333333351 -0.0149999997 0
0.0299999993 -0.0149999997 0
0.0266666673 -0.0149999997 0
0.0233333334 -0.0149999997 0
0.0199999996 -0.0149999997 0
0.0166666675 -0.0149999997 0
0.0133333337 -0.0149999997 0
0.00999999978 -0.0149999997 0
0.00666666683 -0.0149999997 0
0.00333333341 -0.0149999997 0
0.0 -0.0149999997 0
0.100000001 -0.0183333326 0
0.0966666639 -0.0183333326 0
0.0933333337 -0.0183333326 0
0.0900000036 -0.0183333326 0
0.086666666 -0.0183333326 0
0.0833333358 -0.0183333326 0
0.0799999982 -0.0183333326 0
0.0766666681 -0.0183333326 0
0.0733333305 -0.0183333326 0
0.0700000003 -0.0183333326 0
0.0666666701 -0.0183333326 0
0.0633333325 -0.0183333326 0
0.0599999987 -0.0183333326 0
0.0566666685 -0.0183333326 0
0.0533333346 -0.0183333326 0
0.0500000007 -0.0183333326 0
0.0466666669 -0.0183333326 0
0.043333333 -0.0183333326 0
0.0399999991 -0.0183333326 0
0.0366666652 -0.0183333326 0
0.0333333351 -0.0183333326 0
0.0299999993 -0.0183333326 0
0.0266666673 -0.0183333326 0
0.0233333334 -0.0183333326 0
0.0199999996 -0.0183333326 0
0.0166666675 -0.0183333326 0
0.0133333337 -0.0183333326 0
0.00999999978 -0.0183333326 0
0.00666666683 -0.0183333326 0
0.00333333341 -0.0183333326 0
0.0 -0.0183333326 0
0.100000001 -0.0216666665 0
0.0966666639 -0.0216666665 0
0.0933333337 -0.0216666665 0
0.0900000036 -0.0216666665 0
0.086666666 -0.0216666665 0
0.0833333358 -0.0216666665 0
0.0799999982 -0.0216666665 0
0.0766666681 -0.0216666665 0
0.0733333305 -0.0216666665 0
0.0700000003 -0.0216666665 0
0.0666666701 -0.0216666665 0
0.0633333325 -0.0216666665 0
0.0599999987 -0.0216666665 0
0.0566666685 -0.0216666665 0
0.0533333346 -0.0216666665 0
0.0500000007 -0.0216666665 0
0.0466666669 -0.0216666665 0
0.043333333 -0.0216666665 0
0.0399999991 -0.0216666665 0
0.0366666652 -0.0216666665 0
0.0333333351 -0.0216666665 0
0.0299999993 -0.0216666665 0
0.0266666673 -0.0216666665 0
0.0233333334 -0.0216666665 0
0.0199999996 -0.0216666665 0
0.0166666675 -0.0216666665 0
0.0133333337 -0.0216666665 0
0.00999999978 -0.0216666665 0
0.00666666683 -0.0216666665 0
0.00333333341 -0.0216666665 0
0.0 -0.0216666665 0
0.100000001 -0.0250000004 0
0.0966666639 -0.0250000004 0
0.0933333337 -0.0250000004 0
0.0900000036 -0.0250000004 0
0.086666666 -0.0250000004 0
0.0833333358 -0.0250000004 0
0.0799999982 -0.0250000004 0
0.0766666681 -0.0250000004 0
0.0733333305 -0.0250000004 0
0.0700000003 -0.0250000004 0
0.0666666701 -0.0250000004 0
0.0633333325 -0.0250000004 0
0.0599999987 -0.0250000004 0
0.0566666685 -0.0250000004 0
0.0533333346 -0.0250000004 0
0.0500000007 -0.0250000004 0
0.0466666669 -0.0250000004 0
0.043333333 -0.0250000004 0
0.0399999991 -0.0250000004 0
0.0366666652 -0.0250000004 0
0.0333333351 -0.0250000004 0
0.0299999993 -0.0250000004 0
0.0266666673 -0.0250000004 0
0.0233333334 -0.0250000004 0
0.0199999996 -0.0250000004 0
0.0166666675 -0.0250000004 0
0.0133333337 -0.0250000004 0
0.00999999978 -0.0250000004 0
0.00666666683 -0.0250000004 0
0.00333333341 -0.0250000004 0
0.0 -0.0250000004 0
0.100000001 -0.0283333343 0
0.0966666639 -0.0283333343 0
0.0933333337 -0.0283333343 0
0.0900000036 -0.0283333343 0
0.086666666 -0.0283333343 0
0.0833333358 -0.0283333343 0
0.0799999982 -0.0283333343 0
0.0766666681 -0.0283333343 0
0.0733333305 -0.0283333343 0
0.0700000003 -0.0283333343 0
0.0666666701 -0.0283333343 0
0.0633333325 -0.0283333343 0
0.0599999987 -0.0283333343 0
0.0566666685 -0.0283333343 0
0.0533333346 -0.0283333343 0
0.0500000007 -0.0283333343 0
0.0466666669 -0.0283333343 0
0.043333333 -0.0283333343 0
0.0399999991 -0.0283333343 0
0.0366666652 -0.0283333343 0
0.0333333351 -0.0283333343 0
0.0299999993 -0.0283333343 0
0.0266666673 -0.0283333343 0
0.0233333334 -0.0283333343 0
0.0199999996 -0.0283333343 0
0.0166666675 -0.0283333343 0
0.0133333337 -0.0283333343 0
0.00999999978 -0.0283333343 0
0.00666666683 -0.0283333343 0
0.00333333341 -0.0283333343 0
0.0 -0.0283333343 0
[...]
POINT_DATA 961
SCALARS Temp float 1
LOOKUP_TABLE default
341.08465853432136
309.95247680748065
285.1986676018494
266.3901700688493
252.75370950386548
243.32813107112514
237.11878212061364
233.21943125015247
230.88377397289614
229.5481205982913
228.81807829216794
228.436258286905
228.24516557377518
228.15423834830526
228.11489422950598
228.10402684480906
228.1148942263388
228.15423833995786
228.2451657029436
228.43625856300906
228.81807764019678
229.5481210154987
230.88377568818584
233.21943083947755
237.1187868888738
243.32812583990795
252.75371396258078
266.39015860529884
285.19867063794266
309.9525075965314
341.0846583799497
309.9525096853147
277.6917362743858
252.0401962795499
232.54921830647928
218.41762093208223
208.6495329826666
202.2143434587019
198.1730263772766
195.75223990430243
194.36784784379935
193.6111328875052
193.21534485501462
193.01725230037067
192.92299010413555
192.88220134017365
192.87093464843807
192.88220133689
192.92299009548165
193.0172524342734
193.21534514122436
193.6111322116969
194.36784827624012
195.75224168214268
198.17302595163227
202.2143484004675
208.64952756125555
218.41762555274957
232.54920642682342
252.04019942578168
277.691768179817
309.95250952536935
285.19867230798036
252.04016613775727
225.67378104295267
205.63860958492938
191.1115295323611
181.06931524907708
174.45295695759
170.29746135643092
167.80801610762796
166.38419707198358
165.60583724476598
165.19867709948963
164.9948667045987
164.89787153520308
164.8558955757336
164.84430016578204
164.85589557235434
164.89787152629756
164.9948668423738
165.19867739393777
165.60583654957915
166.38419751676656
167.80801793598278
170.29746091871039
174.45296203870268
181.06930967523894
191.11153428250242
205.63859737319055
225.67378427694743
252.04019893167538
285.19867214364854
266.3901587875556
232.54917087538234
205.63859245090634
185.18839354540734
170.35902757997383
160.10673270763232
153.35111377718266
149.10755635476033
146.56496320314687
145.11050495439324
144.31525558207113
143.89918410822182
143.6908738963742
143.59171896259403
143.54880141144525
143.5369447036273
143.54880140798974
143.59171895348896
143.69087403720232
143.89918440913632
144.3152548717274
145.11050540878733
146.56496507067084
149.10755590768952
153.35111896557132
160.10672701677302
170.3590324291953
185.18838108011624
205.63859575177543
232.5492043452195
266.3901586199354
252.75371428478832
218.41758962237918
191.11152943404602
170.35904522885735
155.30890283213054
144.90267402687192
138.04463292241599
133.7360395943461
131.15401796677452
129.6767199486994
128.86881662319877
128.44603368401522
128.23431654152742
128.13351799368803
128.0898806894959
128.07782369702358
128.08988068598202
128.1335179844304
128.2343166846722
128.44603398981025
128.86881590146692
129.6767204102758
131.1540198634185
133.73603914033626
138.0446381898509
144.90266825008024
155.3089077538219
170.35903257863038
191.1115327835705
218.41762358301102
252.7537141148242
243.3281281152287
208.64949329223097
181.06930685562088
160.10674206802895
144.9026654311254
134.38869346142923
127.45864721062146
123.10410719758853
120.49408084840847
119.00046768347865
118.18347092022071
117.75583499727135
117.54163885510384
117.43963706882647
117.3954700799411
117.38326521452746
117.39547007638396
117.43963705945674
117.54163899993877
117.75583530660437
118.183470190277
119.00046815020099
120.49408276578718
123.10410673864868
127.45865253375162
134.3886876243361
144.90267040343363
160.10672928906152
181.0693102389172
208.64952759271344
243.32812794367808
237.11878708876844
202.2143117411131
174.4529569732349
153.35113184338988
138.04463304308976
127.4586560782154
120.48024516108562
116.09466944576248
113.46561038424456
111.96083612625267
111.13757557905069
110.70657288437712
110.49064446922957
110.38779598160444
110.34325400227517
110.33094406022516
110.34325399868747
110.3877959721554
110.49064461524931
110.70657319617132
111.13757484342787
111.96083659650743
113.46561231575602
116.09466898347104
120.48025052172089
127.45865020070431
138.04463804914386
153.35111897891912
174.45296037888625
202.2143462659428
237.11878691619785
233.21943184300227
198.17298997448745
170.29745668796573
149.10756971367167
133.73603485890416
123.10411119569306
116.09466450213147
111.68904767310745
109.04761387563711
107.5355294373013
106.70813447688104
106.2748916816782
106.05780129844834
105.95438037869849
105.90958315287057
105.89720138935316
105.90958314926185
105.9543803691955
106.0578014452654
106.27489199511531
106.70813373749328
107.53552990987869
109.04761581636727
111.68904720863615
116.09466988690257
123.1041052923068
133.73603988643376
149.10755679501827
170.29746010773107
198.17302464052761
233.21943166980864
230.8837763417249
195.75220525180595
167.80801331922098
146.56497852824273
131.1540151815793
120.49408684134595
113.46560742580522
109.04761588408698
106.39848366204238
104.88181480480944
104.0518049534006
103.6171328344637
103.39929438876828
103.29550173709212
103.25053751548207
103.23810854737536
103.25053751185953
103.29550172755393
103.39929453610073
103.61713314895277
104.05180421161975
104.8818152788494
106.39848560852809
109.04761541825916
113.46561282542363
120.49408092213272
131.15402022216003
146.56496557681328
167.80801674748975
195.7522400026416
230.88377616816945
229.54812089690782
194.3678109937302
166.38419206939193
145.11051804428
129.67671486641217
119.00047136769857
111.96083082772725
107.53552910255311
104.88181245105154
103.36238986521255
102.53079489983327
102.0952480652229
101.87694737522361
101.77292285928141
101.72785363288992
101.71539483668643
101.72785362925855
101.77292284972106
101.87694752287577
102.09524838035829
102.53079415659414
103.36239034013498
104.88181440097787
107.5355286359173
111.96083623608153
119.0004654392298
129.67671991457274
145.11050507390922
166.38419550255423
194.36784579318686
229.5481207231526
228.81807795574872
193.61109535076156
165.60583156093426
144.31526799046168
128.86881083354592
118.18347389656634
111.13756955909942
106.70813342156927
104.05180187468676
102.53079417584452
101.6982778946259
101.26221748704039
101.04364259362832
100.93947915722481
100.89434647690098
100.88186956149596
100.89434647326426
100.93947914765107
101.04364274147088
101.26221780255682
101.69827715053441
102.53079465127745
104.05180382658355
106.70813295447252
111.13757497237376
118.18346796291854
128.86881588591734
144.3152550096232
165.60583499678873
193.61113017686841
228.8180777818882
228.4362586547187
193.21530803335105
165.19867216442663
143.89919728943661
128.44602867168166
117.75583876382794
110.70656765647831
106.2748914249482
103.6171305557967
102.09524814417804
101.26221829137774
100.8258685652056
100.60713753095027
100.50289415957494
100.4577246404587
100.44523714862125
100.45772463681897
100.50289414999348
100.60713767890184
100.82586888093758
101.26221754680839
102.09524861989414
103.61713250877517
106.27489095759942
110.70657307240684
117.7558328274048
128.4460337262928
143.89918430306054
165.1986756016984
193.21534287343712
228.43625848080526
228.24516584076792
193.01721536671846
164.99486166094078
143.69088697052288
128.23431141639202
117.5416425096259
110.49063912619134
106.05780092725438
103.39929199466647
101.87694733920519
101.04364328310814
100.60713741573718
100.38832118566307
100.28403373360231
100.23884371458186
100.22635030487382
100.2388437109404
100.28403372401642
100.38832133367444
100.6071377315861
101.04364253828201
101.87694781507163
103.39929394821354
106.05780045977384
110.49064454349069
117.54163657177943
128.2343164721435
143.69087398134312
164.9948650989273
193.01725021382177
228.24516566682925
228.15423849829793
192.92295304562407
164.8978663662218
143.5917319105086
128.1335127382968
117.4396405925423
110.38779050558922
105.95437987441524
103.29549920912756
101.77292268944895
100.93947971284095
100.50289391025345
100.28403359945847
100.17972310484542
100.13452227601795
100.12202572934494
100.13452227237553
100.17972309525729
100.2840337475009
100.50289422616245
100.93947896788409
101.77292316539128
103.29550116295847
105.9543794068692
110.38779592356099
117.4396346540023
128.13351779460004
143.5917189199797
164.89786980455077
192.92298789607622
228.15423832434786
228.11489439735092
192.88216429862115
164.85589042556978
143.54881437941435
128.08987545364488
117.39547362386962
110.34324854615676
105.90958266887101
103.25053500773889
101.72785348347901
100.89434705302413
100.457724411594
100.2388436009129
100.13452229651084
100.0893163590653
100.07681832333536
100.08931635542244
100.13452228692164
100.23884374896974
100.45772472753077
100.89434630800724
101.72785395945594
103.25053696169782
105.90958220129556
110.34325396442729
117.39546768502312
128.08988051019026
143.54880138829625
164.8558938640477
192.88219915052585
228.11489422339616
228.10402702784634
192.8708976222078
164.84429503176528
143.53695768833427
128.07781847795707
117.38326877556837
110.33093862123032
105.8972009226541
103.23810605695992
101.71539470468863
100.88187015507403
100.44523693720714
100.22635020866625
100.12202576730745
100.07681834080651
100.06431986990401
100.07681833716354
100.12202575771806
100.22635035672745
100.44523725315189
100.88186941003988
101.71539518067534
103.23810801095513
105.89720045507049
110.3309440395847
117.38326283663619
128.07782353457
143.53694469705218
164.84429847028468
192.87093247451466
228.1040268538905
228.11489440472192
192.88216430626264
164.85589043343376
143.54881438745497
128.08987546182024
117.39547363214426
110.3432485545016
105.90958267726364
103.25053501616279
101.72785349192256
100.89434706147958
100.45772442005622
100.23884360937903
100.13452230497897
100.08931636753444
100.0768183318048
100.08931636389158
100.13452229538984
100.23884375743597
100.45772473599311
100.8943463164626
101.72785396789949
103.25053697012174
105.90958220968824
110.34325397277217
117.39546769329775
128.08988051836567
143.54880139633693
164.85589387191192
192.88219915816774
228.11489423076733
228.15423851608426
192.9229530640629
164.89786638519584
143.59173192990608
128.1335127580171
117.43964061249925
110.3877905257129
105.9543798946519
103.2954992294378
101.77292270980513
100.93947973322486
100.50289393065327
100.28403361986713
100.17972312525868
100.13452229643336
100.12202574976098
100.13452229279096
100.17972311567055
100.28403376790956
100.50289424656235
100.939478988268
101.77292318574759
103.29550118326885
105.95437942710599
110.38779594368476
117.43963467395918
128.13351781432044
143.59171893937753
164.89786982352504
192.9229879145153
228.15423834213436
228.24516587875996
193.01721540610276
164.99486170146346
143.6908870119427
128.23431145849216
117.5416425522221
110.49063916913492
106.05780097043177
103.39929203799451
101.87694738262671
101.04364332658533
100.6071374592463
100.38832122918942
100.28403377713772
100.23884375812158
100.2263503484148
100.2388437544801
100.284033767552
100.38832137720092
100.60713777509523
101.04364258175913
101.87694785849325
103.3992939915417
106.0578005029512
110.4906445864344
117.54163661437582
128.23431651424394
143.69087402276332
164.99486513945044
193.01725025320647
228.24516570482152
228.43625873979454
193.21530812154072
165.19867225515412
143.89919738215573
128.44602876590326
117.75583885913825
110.70656775254587
106.274891521521
103.61713065269278
102.0952482412727
101.26221838858955
100.82586866248344
100.60713762826397
100.50289425690707
100.45772473779932
100.44523724596438
100.45772473415961
100.50289424732559
100.60713777621571
100.82586897821564
101.26221764402015
102.09524871698893
103.61713260567151
106.27489105417237
110.7065731684747
117.75583292271551
128.44603382051477
143.89918439577997
165.19867569242652
193.21534296162713
228.43625856588167
228.8180784228873
193.61109583497694
165.60583205902694
144.315268499402
128.86881135063197
118.1834744195218
111.1375700861104
106.70813395126626
104.05180240608902
102.53079470828487
101.6982784276723
101.26221802042619
101.04364312719615
100.93947969088545
100.89434701060402
100.88187009521118
100.89434700696734
100.93947968131172
101.04364327503876
101.26221833594283
101.69827768358098
102.53079518371801
104.05180435798607
106.7081334841697
111.13757549938492
118.18346848587422
128.86881640300368
144.3152555185637
165.60583549488135
193.61113066108413
228.8180782490271
229.5481206459007
194.36781073355533
166.38419180178312
145.1105177708761
129.67671458867213
119.000471086847
111.96083054473614
107.53552881815266
104.88181216576159
103.36238957938453
102.53079461369335
102.09524777890955
101.87694708881801
101.77292257282924
101.7278533464164
101.7153945502068
101.72785334278507
101.77292256326888
101.87694723647027
102.0952480940451
102.53079387045446
103.36239005430723
104.88181411568794
107.53552835151692
111.9608359530907
119.00046515837849
129.67671963683284
145.11050480050548
166.38419523494528
194.36784553301175
229.54812047214568
230.88377783711988
195.75220680173425
167.80801491319212
146.56498015636785
131.15401683509836
120.49408851294902
113.46560910973591
109.04761757606006
106.39848535903731
104.88181650480689
104.05180665511794
103.61713453712528
103.39929609192635
103.29550344049791
103.25053921899959
103.23811025092449
103.25053921537702
103.29550343095971
103.39929623925879
103.61713485161452
104.0518059133372
104.88181697884693
106.39848730552306
109.04761711023237
113.46561450935457
120.49408259373597
131.15402187567935
146.5649672049388
167.80801834146106
195.75224155256987
230.88377766356462
233.2194310530141
198.17298915571502
170.29745584599723
149.10756885376625
133.73603398570933
123.10411031307392
116.09466361311885
111.68904677994662
109.04761297990134
107.5355285400359
106.70813357874553
106.27489078306839
106.05780039959096
105.95437947971845
105.90958225383554
105.89720049030254
105.9095822502267
105.95437947021549
106.05780054640805
106.27489109650551
106.70813283935773
107.53552901261337
109.0476149206316
111.68904631547532
116.09466899789008
123.10410440968768
133.7360390132391
149.10755593511306
170.29745926576274
198.1730238217555
233.21943087982058
237.1187927187335
202.2143175759434
174.45296297260828
153.35113796944572
138.04463926250062
127.45866236341004
120.48025149058452
116.09467580377661
113.46561675980311
111.96084251213568
111.13758197074914
110.70657927921361
110.49065086568669
110.38780237885679
110.34326039988088
110.33095045793007
110.34326039629312
110.38780236940772
110.49065101170642
110.70657959100768
111.13758123512649
111.96084298239039
113.46561869131467
116.09467534148538
120.48025685121986
127.45865648589917
138.04464426855492
153.35112510497527
174.45296637825987
202.21435210077317
237.11879254616295
243.3281302177793
208.64949547120514
181.06930909580177
160.10674435515836
144.90266775269413
134.388695807135
127.45864957248328
123.10410956977732
120.49408322690405
119.00047006565623
118.18347330445523
117.75583738260607
117.5416412410018
117.43963945499856
117.39547246623403
117.38326760085415
117.39547246267682
117.43963944562871
117.54164138583666
117.75583769193875
118.18347257451128
119.00047053237869
120.49408514428293
123.10410911083783
127.45865489561365
134.3886899700423
144.9026727250027
160.10673157619124
181.06931247909836
208.64952977168784
243.32813004622912
252.75370806461908
218.41758317625644
191.11152280724053
170.35903846374177
155.30889596581298
144.902667089839
138.04462593821455
133.73603258011107
131.1540109342771
129.6767129055894
128.86880957418933
128.44602663186592
128.23430948777863
128.13351093916503
128.0898736346329
128.07781664206576
128.08987363111893
128.1335109299073
128.23430963092332
128.4460269376607
128.86880885245728
129.67671336716572
131.15401283092115
133.73603212610152
138.0446312056499
144.90266131304764
155.30890088750476
170.35902581351482
191.1115261567653
218.41761713688854
252.7537078946553
266.3901678754106
232.54918029310178
205.63860213186612
185.18840342734103
170.35903760848032
160.10674283816218
153.35112397546365
149.10756659596922
146.56497347032
145.1105152365692
144.31526587253705
143.89919440307293
143.69088419344507
143.59172926073288
143.54881171005061
143.53695500236216
143.54881170659496
143.59172925162756
143.6908843342729
143.89919470398726
144.31526516219333
145.11051569096313
146.56497533784398
149.10756614889837
153.3511291638523
160.10673714730308
170.3590424577018
185.18839096205005
205.63860543273512
232.54921376293876
266.3901677077905
285.19866450873843
252.04015805559055
225.67377273534763
205.63860110555285
191.111520928017
181.06930655800096
174.4529482091092
170.2974525717126
167.80800730108064
166.38418825287732
165.60582841875177
165.19866826983827
164.994857873115
164.8978627028417
164.85588674299018
164.84429133293278
164.85588673961092
164.89786269393605
164.99485801088977
165.19866856428615
165.60582772356435
166.38418869766025
167.80800912943522
170.29745213399218
174.4529532902219
181.0693009841628
191.11152567815824
205.63858889381396
225.67377596934253
252.04019084950892
285.1986643444062
309.95253542924695
277.6917629517628
252.04022369980916
232.54924629187707
218.417649327826
208.64956166254538
202.21437232614215
198.17305536276862
195.7522689606804
194.36787694082065
193.61116200680328
193.21537398599756
193.01728143721857
192.923019243782
192.8822304810339
192.8709637896343
192.88223047775048
192.92301923512815
193.01728157112103
193.21537427220684
193.61116133099478
194.3678773732612
195.7522707385203
198.17305493712408
202.2143772679073
208.64955624113438
218.41765394849318
232.54923441222155
252.04022684604075
277.6917948571931
309.9525352693016
341.08465845165824
309.9524767218341
285.1986675138578
266.39016997910284
252.75370941287065
243.32813097928744
237.1187820282353
233.2194311574453
230.88377387999898
229.54812050528963
228.8180781991114
228.43625819382112
228.24516548067822
228.15423825520216
228.11489413640035
228.10402675170297
228.11489413323332
228.1542382468548
228.24516560984642
228.43625846992458
228.81807754713984
229.54812092249688
230.88377559528863
233.21943074677023
237.11878679649553
243.32812574807002
252.75371387158592
266.3901585155522
285.198670549951
309.9525075108849
341.08465829728624
