# vtk DataFile Version 2.0
Unstructured Grid Example
ASCII
DATASET UNSTRUCTURED_GRID

POINTS 961 float
0.100000001 0.00499999989 0
0.0966666639 0.00499999989 0
0.0933333337 0.00499999989 0
0.0900000036 0.00499999989 0
0.086666666 0.00499999989 0
0.0833333358 0.00499999989 0
0.0799999982 0.00499999989 0
0.0766666681 0.00499999989 0
0.0733333305 0.00499999989 0
0.0700000003 0.00499999989 0
0.0666666701 0.00499999989 0
0.0633333325 0.00499999989 0
0.0599999987 0.00499999989 0
0.0566666685 0.00499999989 0
0.0533333346 0.00499999989 0
0.0500000007 0.00499999989 0
0.0466666669 0.00499999989 0
0.043333333 0.00499999989 0
0.0399999991 0.00499999989 0
0.0366666652 0.00499999989 0
0.0333333351 0.00499999989 0
0.0299999993 0.00499999989 0
0.0266666673 0.00499999989 0
0.0233333334 0.00499999989 0
0.0199999996 0.00499999989 0
0.0166666675 0.00499999989 0
0.0133333337 0.00499999989 0
0.00999999978 0.00499999989 0
0.00666666683 0.00499999989 0
0.00333333341 0.00499999989 0
0.0 0.00499999989 0
0.100000001 0.00166666671 0
0.0966666639 0.00166666671 0
0.0933333337 0.00166666671 0
0.0900000036 0.00166666671 0
0.086666666 0.00166666671 0
0.0833333358 0.00166666671 0
0.0799999982 0.00166666671 0
0.0766666681 0.00166666671 0
0.0733333305 0.00166666671 0
0.0700000003 0.00166666671 0
0.0666666701 0.00166666671 0
0.0633333325 0.00166666671 0
0.0599999987 0.00166666671 0
0.0566666685 0.00166666671 0
0.0533333346 0.00166666671 0
0.0500000007 0.00166666671 0
0.0466666669 0.00166666671 0
0.043333333 0.00166666671 0
0.0399999991 0.00166666671 0
0.0366666652 0.00166666671 0
0.0333333351 0.00166666671 0
0.0299999993 0.00166666671 0
0.0266666673 0.00166666671 0
0.0233333334 0.00166666671 0
0.0199999996 0.00166666671 0
0.0166666675 0.00166666671 0
0.0133333337 0.00166666671 0
0.00999999978 0.00166666671 0
0.00666666683 0.00166666671 0
0.00333333341 0.00166666671 0
0.0 0.00166666671 0
0.100000001 -0.00166666671 0
0.0966666639 -0.00166666671 0
0.0933333337 -0.00166666671 0
0.0900000036 -0.00166666671 0
0.086666666 -0.00166666671 0
0.0833333358 -0.00166666671 0
0.0799999982 -0.00166666671 0
0.0766666681 -0.00166666671 0
0.0733333305 -0.00166666671 0
0.0700000003 -0.00166666671 0
0.0666666701 -0.00166666671 0
0.0633333325 -0.00166666671 0
0.0599999987 -0.00166666671 0
0.0566666685 -0.00166666671 0
0.0533333346 -0.00166666671 0
0.0500000007 -0.00166666671 0
0.0466666669 -0.00166666671 0
0.043333333 -0.00166666671 0
0.0399999991 -0.00166666671 0
0.0366666652 -0.00166666671 0
0.0333333351 -0.00166666671 0
0.0299999993 -0.00166666671 0
0.0266666673 -0.00166666671 0
0.0233333334 -0.00166666671 0
0.0199999996 -0.00166666671 0
0.0166666675 -0.00166666671 0
0.0133333337 -0.00166666671 0
0.00999999978 -0.00166666671 0
0.00666666683 -0.00166666671 0
0.00333333341 -0.00166666671 0
0.0 -0.00166666671 0
0.100000001 -0.00499999989 0
0.0966666639 -0.00499999989 0
0.0933333337 -0.00499999989 0
0.0900000036 -0.00499999989 0
0.086666666 -0.00499999989 0
0.0833333358 -0.00499999989 0
0.0799999982 -0.00499999989 0
0.0766666681 -0.00499999989 0
0.0733333305 -0.00499999989 0
0.0700000003 -0.00499999989 0
0.0666666701 -0.00499999989 0
0.0633333325 -0.00499999989 0
0.0599999987 -0.00499999989 0
0.0566666685 -0.00499999989 0
0.0533333346 -0.00499999989 0
0.0500000007 -0.00499999989 0
0.0466666669 -0.00499999989 0
0.043333333 -0.00499999989 0
0.0399999991 -0.00499999989 0
0.0366666652 -0.00499999989 0
0.0333333351 -0.00499999989 0
0.0299999993 -0.00499999989 0
0.0266666673 -0.00499999989 0
0.0233333334 -0.00499999989 0
0.0199999996 -0.00499999989 0
0.0166666675 -0.00499999989 0
0.0133333337 -0.00499999989 0
0.00999999978 -0.00499999989 0
0.00666666683 -0.00499999989 0
0.00333333341 -0.00499999989 0
0.0 -0.00499999989 0
0.100000001 -0.00833333377 0
0.0966666639 -0.00833333377 0
0.0933333337 -0.00833333377 0
0.0900000036 -0.00833333377 0
0.086666666 -0.00833333377 0
0.0833333358 -0.00833333377 0
0.0799999982 -0.00833333377 0
0.0766666681 -0.00833333377 0
0.0733333305 -0.00833333377 0
0.0700000003 -0.00833333377 0
0.0666666701 -0.00833333377 0
0.0633333325 -0.00833333377 0
0.0599999987 -0.00833333377 0
0.0566666685 -0.00833333377 0
0.0533333346 -0.00833333377 0
0.0500000007 -0.00833333377 0
0.0466666669 -0.00833333377 0
0.043333333 -0.00833333377 0
0.0399999991 -0.00833333377 0
0.0366666652 -0.00833333377 0
0.0333333351 -0.00833333377 0
0.0299999993 -0.00833333377 0
0.0266666673 -0.00833333377 0
0.0233333334 -0.00833333377 0
0.0199999996 -0.00833333377 0
0.0166666675 -0.00833333377 0
0.0133333337 -0.00833333377 0
0.00999999978 -0.00833333377 0
0.00666666683 -0.00833333377 0
0.00333333341 -0.00833333377 0
0.0 -0.00833333377 0
0.100000001 -0.0116666667 0
0.0966666639 -0.0116666667 0
0.0933333337 -0.0116666667 0
0.0900000036 -0.0116666667 0
0.086666666 -0.0116666667 0
0.0833333358 -0.0116666667 0
0.0799999982 -0.0116666667 0
0.0766666681 -0.0116666667 0
0.0733333305 -0.0116666667 0
0.0700000003 -0.0116666667 0
0.0666666701 -0.0116666667 0
0.0633333325 -0.0116666667 0
0.0599999987 -0.0116666667 0
0.0566666685 -0.0116666667 0
0.0533333346 -0.0116666667 0
0.0500000007 -0.0116666667 0
0.0466666669 -0.0116666667 0
0.043333333 -0.0116666667 0
0.0399999991 -0.0116666667 0
0.0366666652 -0.0116666667 0
0.0333333351 -0.0116666667 0
0.0299999993 -0.0116666667 0
0.0266666673 -0.0116666667 0
0.0233333334 -0.0116666667 0
0.0199999996 -0.0116666667 0
0.0166666675 -0.0116666667 0
0.0133333337 -0.0116666667 0
0.00999999978 -0.0116666667 0
0.00666666683 -0.0116666667 0
0.00333333341 -0.0116666667 0
0.0 -0.0116666667 0
0.100000001 -0.0149999997 0
0.0966666639 -0.0149999997 0
0.0933333337 -0.0149999997 0
0.0900000036 -0.0149999997 0
0.086666666 -0.0149999997 0
0.0833333358 -0.0149999997 0
0.0799999982 -0.0149999997 0
0.0766666681 -0.0149999997 0
0.0733333305 -0.0149999997 0
0.0700000003 -0.0149999997 0
0.0666666701 -0.0149999997 0
0.0633333325 -0.0149999997 0
0.0599999987 -0.0149999997 0
0.0566666685 -0.0149999997 0
0.0533333346 -0.0149999997 0
0.0500000007 -0.0149999997 0
0.0466666669 -0.0149999997 0
0.043333333 -0.0149999997 0
0.0399999991 -0.0149999997 0
0.0366666652 -0.0149999997 0
0.0333333351 -0.0149999997 0
0.0299999993 -0.0149999997 0
0.0266666673 -0.0149999997 0
0.0233333334 -0.0149999997 0
0.0199999996 -0.0149999997 0
0.0166666675 -0.0149999997 0
0.0133333337 -0.0149999997 0
0.00999999978 -0.0149999997 0
0.00666666683 -0.0149999997 0
0.00333333341 -0.0149999997 0
0.0 -0.0149999997 0
0.100000001 -0.0183333326 0
0.0966666639 -0.0183333326 0
0.0933333337 -0.0183333326 0
0.0900000036 -0.0183333326 0
0.086666666 -0.0183333326 0
0.0833333358 -0.0183333326 0
0.0799999982 -0.0183333326 0
0.0766666681 -0.0183333326 0
0.0733333305 -0.0183333326 0
0.0700000003 -0.0183333326 0
0.0666666701 -0.0183333326 0
0.0633333325 -0.0183333326 0
0.0599999987 -0.0183333326 0
0.0566666685 -0.0183333326 0
0.0533333346 -0.0183333326 0
0.0500000007 -0.0183333326 0
0.0466666669 -0.0183333326 0
0.043333333 -0.0183333326 0
0.0399999991 -0.0183333326 0
0.0366666652 -0.0183333326 0
0.0333333351 -0.0183333326 0
0.0299999993 -0.0183333326 0
0.0266666673 -0.0183333326 0
0.0233333334 -0.0183333326 0
0.0199999996 -0.0183333326 0
0.0166666675 -0.0183333326 0
0.0133333337 -0.0183333326 0
0.00999999978 -0.0183333326 0
0.00666666683 -0.0183333326 0
0.00333333341 -0.0183333326 0
0.0 -0.0183333326 0
0.100000001 -0.0216666665 0
0.0966666639 -0.0216666665 0
0.0933333337 -0.0216666665 0
0.0900000036 -0.0216666665 0
0.086666666 -0.0216666665 0
0.0833333358 -0.0216666665 0
0.0799999982 -0.0216666665 0
0.0766666681 -0.0216666665 0
0.0733333305 -0.0216666665 0
0.0700000003 -0.0216666665 0
0.0666666701 -0.0216666665 0
0.0633333325 -0.0216666665 0
0.0599999987 -0.0216666665 0
0.0566666685 -0.0216666665 0
0.0533333346 -0.0216666665 0
0.0500000007 -0.0216666665 0
0.0466666669 -0.0216666665 0
0.043333333 -0.0216666665 0
0.0399999991 -0.0216666665 0
0.0366666652 -0.0216666665 0
0.0333333351 -0.0216666665 0
0.0299999993 -0.0216666665 0
0.0266666673 -0.0216666665 0
0.0233333334 -0.0216666665 0
0.0199999996 -0.0216666665 0
0.0166666675 -0.0216666665 0
0.0133333337 -0.0216666665 0
0.00999999978 -0.0216666665 0
0.00666666683 -0.0216666665 0
0.00333333341 -0.0216666665 0
0.0 -0.0216666665 0
0.100000001 -0.0250000004 0
0.0966666639 -0.0250000004 0
0.0933333337 -0.0250000004 0
0.0900000036 -0.0250000004 0
0.086666666 -0.0250000004 0
0.0833333358 -0.0250000004 0
0.0799999982 -0.0250000004 0
0.0766666681 -0.0250000004 0
0.0733333305 -0.0250000004 0
0.0700000003 -0.0250000004 0
0.0666666701 -0.0250000004 0
0.0633333325 -0.0250000004 0
0.0599999987 -0.0250000004 0
0.0566666685 -0.0250000004 0
0.0533333346 -0.0250000004 0
0.0500000007 -0.0250000004 0
0.0466666669 -0.0250000004 0
0.043333333 -0.0250000004 0
0.0399999991 -0.0250000004 0
0.0366666652 -0.0250000004 0
0.0333333351 -0.0250000004 0
0.0299999993 -0.0250000004 0
0.0266666673 -0.0250000004 0
0.0233333334 -0.0250000004 0
0.0199999996 -0.0250000004 0
0.0166666675 -0.0250000004 0
0.0133333337 -0.0250000004 0
0.00999999978 -0.0250000004 0
0.00666666683 -0.0250000004 0
0.00333333341 -0.0250000004 0
0.0 -0.0250000004 0
0.100000001 -0.0283333343 0
0.0966666639 -0.0283333343 0
0.0933333337 -0.0283333343 0
0.0900000036 -0.0283333343 0
0.086666666 -0.0283333343 0
0.0833333358 -0.0283333343 0
0.0799999982 -0.0283333343 0
0.0766666681 -0.0283333343 0
0.0733333305 -0.0283333343 0
0.0700000003 -0.0283333343 0
0.0666666701 -0.0283333343 0
0.0633333325 -0.0283333343 0
0.0599999987 -0.0283333343 0
0.0566666685 -0.0283333343 0
0.0533333346 -0.0283333343 0
0.0500000007 -0.0283333343 0
0.0466666669 -0.0283333343 0
0.043333333 -0.0283333343 0
0.0399999991 -0.0283333343 0
0.0366666652 -0.0283333343 0
0.0333333351 -0.0283333343 0
0.0299999993 -0.0283333343 0
0.0266666673 -0.0283333343 0
0.0233333334 -0.0283333343 0
0.0199999996 -0.0283333343 0
0.0166666675 -0.0283333343 0
0.0133333337 -0.0283333343 0
0.00999999978 -0.0283333343 0
0.00666666683 -0.0283333343 0
0.00333333341 -0.0283333343 0
0.0 -0.0283333343 0
[...]
POINT_DATA 961
SCALARS Temp float 1
LOOKUP_TABLE default
177.4449234964307
150.75069223482438
142.23351390283202
140.12707327361898
139.6593750887427
139.56160220112582
139.54193152081606
139.5380781825882
139.53733794946356
139.53719786599115
139.53717166775485
139.5371668149511
139.53716592314476
139.53716576037178
139.53716573099126
139.53716572661315
139.53716573099126
139.53716576037178
139.53716592314518
139.53716681495362
139.5371716677399
139.5371978660193
139.53733794982617
139.53807818243973
139.54193153039353
139.56160217118799
139.65937518338563
140.12707255979228
142.23351459775924
150.75071022068977
177.44492599650957
150.75070864697966
123.33081049441283
114.56129062996452
112.38857211068513
111.90569132988776
111.80466542577018
111.78432957153125
111.78034410523007
111.77957822668219
111.77943324545895
111.77940612453767
111.77940109969656
111.77940017610004
111.77940000749574
111.77939997705805
111.77939997252193
111.77939997705806
111.77940000749568
111.77940017610048
111.77940109969916
111.77940612452215
111.7794332454881
111.77957822705753
111.78034410507658
111.78432958143398
111.80466539483116
111.90569142762844
112.38857137415405
114.56129134595788
123.33082898667837
150.75071120126495
142.23351217870155
114.561271789182
105.68332940495218
103.47623442584303
102.98454043518122
102.88149015410234
102.86071767595938
102.85664213938892
102.85585821806691
102.85570970598306
102.85568190567125
102.85567675194399
102.85567580416337
102.85567563106464
102.85567559980282
102.85567559514244
102.85567559980281
102.85567563106463
102.85567580416384
102.85567675194662
102.85568190565542
102.85570970601285
102.85585821845113
102.85664213923182
102.8607176860782
102.88149012252963
102.98454053476307
103.47623367705519
105.68333013068228
114.5612904735659
142.23351474040652
140.12706982136083
112.38855143036764
103.47623261278898
101.25552007145616
100.75963770958305
100.65550892357007
100.63448497953874
100.63035438252048
100.62955893182483
100.6294080792603
100.6293798153024
100.62937457138882
100.62937360632966
100.62937342996052
100.62937339808963
100.62937339333638
100.62937339808961
100.62937342996058
100.62937360633008
100.62937457139145
100.6293798152861
100.62940807929053
100.62955893221479
100.63035438236125
100.6344849897844
100.65550889165065
100.75963781007664
101.25551931744629
103.47623334187875
112.388570169158
140.12707238290602
139.65937244717534
111.90567147219475
102.98453947135727
100.75963856808795
100.26217537399138
100.15756569010357
100.1364163863103
100.13225602175858
100.13145393427625
100.13130166765322
100.1312731121216
100.13126780961768
100.13126683301556
100.13126665440959
100.13126662211349
100.13126661729434
100.13126662211351
100.13126665440956
100.13126683301601
100.1312678096204
100.13127311210516
100.13130166768364
100.13145393466952
100.13225602159808
100.13641639662106
100.15756565802315
100.26217547485187
100.7596378123072
102.98454020136373
111.90569022397571
139.65937500858573
139.56159944271596
111.8046454443158
102.88148906693803
100.65550965839782
100.15756556532324
100.05278022981932
100.03157767914811
100.02740324041517
100.02659774872087
100.026444708816
100.02641598553075
100.02641064786158
100.02640966408515
100.02640948404657
100.02640945147111
100.026409446608
100.02640945147115
100.02640948404652
100.0264096640856
100.02641064786434
100.02641598551425
100.02644470884661
100.02659774911602
100.0274032402541
100.03157768948758
100.05278019767633
100.1575656663039
100.6555089021163
102.88148979716242
111.80466419896196
139.5616020040908
139.5419287887407
111.78430961665072
102.86071661650597
100.63448574259415
100.13641628975361
100.03157770748231
100.01035616581382
100.00617597244553
100.00536893920501
100.00521551987534
100.0051867088221
100.00518135177188
100.00518036386481
100.00518018297066
100.00518015022307
100.00518014533229
100.00518015022314
100.00518018297065
100.00518036386532
100.00518135177452
100.00518670880555
100.00521551990609
100.00536893960103
100.00617597228425
100.01035617616415
100.03157767531879
100.13641639076775
100.63448498618776
102.86071734677844
111.78432837189699
139.54193135010732
139.5380754411754
111.78032414056472
102.85664107005407
100.63035513561502
100.13225591514082
100.02740325867276
100.00617596235166
100.00199375325583
100.00118610864767
100.00103252353863
100.00100367102067
100.00099830421284
100.00099731411423
100.00099713274548
100.00099709989891
100.00099709499166
100.00099709989895
100.00099713274543
100.00099731411466
100.00099830421561
100.00100367100426
100.0010325235695
100.00118610904407
100.00199375309454
100.00617597270545
100.02740322650332
100.13225601616323
100.63035437918003
102.85664180033673
111.78034289593235
139.53807800254054
139.53733520812318
111.77955826206616
102.85585714880582
100.62955968500387
100.13145382773605
100.02659776705958
100.00536892919088
100.00118610872852
100.00037825296651
100.00022460372435
100.00019573362611
100.00019036235645
100.0001893711909
100.00018918957873
100.00018915667913
100.00018915176287
100.00018915667916
100.00018918957876
100.00018937119144
100.00019036235912
100.00019573360954
100.00022460375511
100.000378253363
100.00118610856718
100.0053689395456
100.02659773488877
100.13145392876041
100.62955892856267
102.8558578790905
111.77957701745763
139.537337769488
139.53719512420153
111.77941328037308
102.8557086362454
100.62940883195769
100.13130156062542
100.02644472666542
100.00521550937046
100.00103252312856
100.00022460323328
100.00007093208849
100.00004205532748
100.00003668221385
100.00003569057415
100.00003550884686
100.00003547592092
100.00003547099995
100.00003547592092
100.0000355088469
100.00003569057456
100.00003668221657
100.0000420553109
100.0000709321192
100.00022460362975
100.00103252296722
100.00521551972544
100.0264446944942
100.13130166165016
100.62940807551506
102.85570936653053
111.77943203576933
139.53719768556633
139.53716892594488
111.77938615942972
102.8556808359118
100.62938056797792
100.13127300507148
100.02641600335798
100.00518669829475
100.00100367058816
100.00019573311263
100.00004205530506
100.00001317628934
100.00000780248877
100.00000681065735
100.00000662888033
100.00000659594215
100.00000659101889
100.0000065959421
100.00000662888023
100.00000681065771
100.00000780249151
100.00001317627274
100.00004205533578
100.00019573350912
100.00100367042677
100.00518670864976
100.0264159711867
100.13127310609626
100.62937981153514
102.85568156619708
111.77940491482671
139.53717148730968
139.5371640731545
111.77938113460237
102.8556756821989
100.6293753240789
100.13126770258218
100.02641066570355
100.00518134125926
100.00099830379524
100.00019036185779
100.00003668220624
100.00000780250365
100.00000242847238
100.00000143657049
100.0000012547737
100.00000122183039
100.00000121690621
100.00000122183035
100.00000125477365
100.000001436571
100.00000242847506
100.00000780248705
100.00003668223701
100.00019036225424
100.00099830363382
100.00518135161435
100.02641063353227
100.13126780360705
100.62937456763613
102.85567641248402
111.77939988999955
139.53716663451922
139.53716318134673
111.77938021100438
102.85567473441672
100.62937435901827
100.13126672597849
100.02640968192547
100.00518035335065
100.00099731369492
100.0001893706907
100.00003569056491
100.00000681067058
100.00000143656884
100.00000044464358
100.00000026283963
100.00000022989428
100.00000022496974
100.0000002298943
100.00000026283963
100.00000044464402
100.00000143657167
100.00000681065406
100.00003569059568
100.00018937108712
100.00099731353349
100.00518036370572
100.02640964975421
100.13126682700334
100.62937360257546
102.85567546470195
111.77939896640146
139.53716574271147
139.5371630185734
111.77938004239965
102.8556745613176
100.62937418264877
100.13126654737209
100.02640950188652
100.0051801724561
100.00099713232576
100.00018918907807
100.00003550883734
100.00000662889315
100.0000012547717
100.0000002628392
100.00000008103285
100.00000004808685
100.00000004316213
100.00000004808687
100.0000000810328
100.00000026283975
100.00000125477443
100.00000662887665
100.00003550886815
100.00018918947455
100.0009971321644
100.00518018281115
100.02640946971528
100.131266648397
100.62937342620599
102.85567529160281
111.77939879779682
139.5371655799382
139.53716298919286
111.77938001196205
102.85567453005582
100.62937415077783
100.13126651507606
100.0264094693111
100.00518013970859
100.00099709947925
100.00018915617846
100.0000354759113
100.00000659595494
100.00000122182846
100.00000022989387
100.00000004808689
100.0000000151406
100.00000001021589
100.00000001514061
100.00000004808683
100.00000022989443
100.00000122183114
100.00000659593846
100.00003547594218
100.00018915657493
100.00099709931779
100.00518015006367
100.0264094371398
100.13126661610094
100.62937339433505
102.85567526034102
111.77939876735915
139.53716555055772
139.53716298481476
111.77938000742587
102.85567452539541
100.62937414602466
100.13126651025692
100.02640946444805
100.00518013481785
100.00099709457194
100.00018915126216
100.00003547099038
100.0000065910318
100.00000121690425
100.0000002249694
100.00000004316212
100.00000001021586
100.00000000529111
100.00000001021589
100.00000004316216
100.00000022496985
100.00000121690698
100.0000065910153
100.00003547102126
100.00018915165866
100.00099709441062
100.00518014517286
100.02640943227668
100.1312666112819
100.62937338958176
102.8556752556806
111.77939876282306
139.5371655461796
139.53716298919286
111.779380011962
102.85567453005575
100.62937415077785
100.13126651507602
100.0264094693111
100.00518013970863
100.00099709947926
100.00018915617845
100.00003547591125
100.000006595955
100.00000122182841
100.00000022989394
100.00000004808689
100.00000001514066
100.00000001021584
100.00000001514063
100.00000004808686
100.00000022989441
100.00000122183107
100.00000659593839
100.00003547594217
100.000189156575
100.0009970993178
100.0051801500637
100.02640943713985
100.13126661610096
100.62937339433508
102.855675260341
111.7793987673592
139.5371655505577
139.53716301857347
111.77938004239962
102.85567456131763
100.62937418264882
100.13126654737216
100.02640950188652
100.00518017245612
100.00099713232578
100.00018918907809
100.00003550883741
100.0000066288932
100.00000125477175
100.00000026283924
100.00000008103287
100.00000004808689
100.00000004316219
100.00000004808689
100.00000008103285
100.00000026283973
100.0000012547744
100.00000662887652
100.00003550886811
100.00018918947464
100.00099713216444
100.00518018281124
100.02640946971532
100.13126664839709
100.62937342620603
102.85567529160288
111.77939879779683
139.5371655799382
139.5371631813468
111.77938021100441
102.85567473441684
100.62937435901836
100.13126672597853
100.02640968192557
100.00518035335072
100.00099731369504
100.00018937069073
100.000035690565
100.00000681067067
100.0000014365691
100.00000044464379
100.00000026283976
100.0000002298944
100.00000022497
100.00000022989443
100.00000026283975
100.00000044464417
100.00000143657178
100.00000681065407
100.00003569059581
100.0001893710873
100.00099731353362
100.00518036370576
100.02640964975431
100.1312668270035
100.62937360257564
102.8556754647021
111.77939896640164
139.5371657427116
139.53716407315522
111.77938113460318
102.85567568219973
100.6293753240797
100.13126770258303
100.0264106657043
100.00518134126004
100.00099830379604
100.00019036185864
100.00003668220702
100.00000780250441
100.00000242847317
100.00000143657134
100.00000125477456
100.00000122183128
100.00000121690711
100.00000122183127
100.00000125477452
100.00000143657184
100.00000242847597
100.00000780248796
100.0000366822379
100.00019036225515
100.00099830363459
100.00518135161516
100.02641063353308
100.13126780360794
100.62937456763703
102.85567641248497
111.77939989000035
139.53716663452005
139.53716892595628
111.7793861594416
102.85568083592408
100.62938056799025
100.13127300508391
100.02641600337049
100.00518669830736
100.00100367060084
100.00019573312515
100.00004205531766
100.00001317630196
100.00000780250143
100.00000681066992
100.00000662889298
100.00000659595477
100.00000659103159
100.00000659595476
100.0000066288929
100.00000681067051
100.0000078025042
100.00001317628542
100.00004205534846
100.00019573352179
100.0010036704394
100.0051867086624
100.02641597119923
100.1312731061087
100.6293798115475
102.8556815662093
111.7794049148386
139.53717148732113
139.53719512418718
111.77941328035823
102.8557086362302
100.62940883194207
100.13130156060964
100.02644472664966
100.00521550935466
100.00103252311283
100.00022460321746
100.0000709320726
100.0000420553117
100.00003668219804
100.00003569055829
100.00003550883117
100.00003547590505
100.0000354709841
100.00003547590508
100.00003550883115
100.00003569055886
100.00003668220083
100.0000420552952
100.00007093210351
100.000224603614
100.00103252295142
100.00521551970968
100.02644469447847
100.13130166163438
100.62940807549958
102.85570936651531
111.7794320357544
139.537197685552
139.53733520843147
111.77955826238518
102.85585714913249
100.62955968533547
100.13145382807052
100.02659776739554
100.00536892952752
100.00118610906551
100.00037825330361
100.00022460406147
100.0001957339633
100.00019036269362
100.00018937152808
100.00018918991584
100.00018915701627
100.00018915209995
100.00018915701628
100.00018918991593
100.00018937152862
100.00019036269637
100.00019573394673
100.00022460409232
100.00037825370006
100.00118610890418
100.00536893988233
100.02659773522474
100.13145392909483
100.62955892889434
102.8558578794173
111.7795770177767
139.53733776979644
139.53807544077392
111.78032414014946
102.85664106962936
100.63035513518442
100.132255914707
100.0274032582373
100.00617596191549
100.00199375281947
100.0011861082113
100.0010325231022
100.00100367058431
100.0009983037764
100.00099731367776
100.000997132309
100.00099709946237
100.00099709455519
100.00099709946235
100.00099713230898
100.00099731367821
100.00099830377916
100.00100367056767
100.00103252313303
100.00118610860766
100.00199375265814
100.00617597226936
100.02740322606785
100.13225601572942
100.63035437874943
102.85664179991201
111.78034289551708
139.53807800213912
139.54192879991766
111.78430962820705
102.86071662831456
100.63448575455087
100.13641630178633
100.03157771954848
100.01035617789253
100.00617598452827
100.00536895128894
100.00521553195966
100.00518672090631
100.00518136385622
100.00518037594912
100.00518019505496
100.0051801623074
100.0051801574166
100.0051801623074
100.00518019505498
100.00518037594966
100.00518136385884
100.00518672088988
100.00521553199034
100.00536895168497
100.00617598436708
100.01035618824284
100.031577687385
100.13641640280044
100.63448499814453
102.86071735858704
111.78432838345341
139.54193136128418
139.56159945900848
111.8046454611531
102.88148908412072
100.65550967576915
100.15756558278181
100.0527802473114
100.0315776966509
100.02740325792078
100.02659776622735
100.02644472632264
100.02641600303743
100.02641066536826
100.02640968159184
100.0264095015532
100.02640946897777
100.02640946411466
100.02640946897775
100.02640950155325
100.02640968159224
100.02641066537097
100.02641600302093
100.02644472635329
100.02659776662249
100.0274032577599
100.03157770699042
100.05278021516853
100.15756568376257
100.65550891948759
102.88148981434506
111.80466421579935
139.56160202038336
139.65937232768115
111.90567134879157
102.98453934563145
100.75963844121294
100.2621752466531
100.1575655626119
100.13641625877536
100.13225589421266
100.1314538067278
100.13130154010437
100.13127298457255
100.13126768206861
100.13126670546647
100.13126652686049
100.13126649456431
100.13126648974523
100.13126649456436
100.13126652686047
100.13126670546689
100.13126768207121
100.13127298455608
100.13130154013477
100.13145380712119
100.13225589405222
100.13641626908617
100.15756553053156
100.26217534751359
100.75963768543208
102.98454007563794
111.90569010057249
139.65937488909168
140.12707044037887
112.38855206906791
103.47623326211553
101.25552072529688
100.75963836493368
100.65550957933773
100.63448563540832
100.63035503841336
100.62955958772264
100.62940873515919
100.62938047120137
100.62937522728797
100.62937426222878
100.62937408585967
100.62937405398871
100.62937404923537
100.6293740539887
100.62937408585968
100.62937426222918
100.62937522729055
100.62938047118513
100.62940873518932
100.62955958811264
100.63035503825411
100.63448564565402
100.65550954741836
100.75963846542722
101.25551997128703
103.47623399120528
112.38857080785834
140.12707300192412
142.23351077979302
114.56127034792826
105.68332794400321
103.47623295782049
102.98453896508967
102.88148868349016
102.86071620522904
102.85664066863316
102.85585674730591
102.85570823522099
102.85568043490915
102.85567528118179
102.85567433340123
102.85567416030246
102.85567412904061
102.85567412438023
102.85567412904062
102.8556741603024
102.85567433340161
102.85567528118446
102.85568043489319
102.85570823525077
102.85585674769014
102.85664066847615
102.86071621534786
102.88148865191754
102.98453906467151
103.47623220903259
105.68332866973334
114.56128903231217
142.23351334149785
150.75072340811022
123.330825671475
114.5613059654962
112.38858749143075
111.9057067214958
111.80468081977824
111.78434496604216
111.7803594998426
111.77959362131475
111.77944864009541
111.77942151917473
111.77941649433386
111.77941557073733
111.77941540213305
111.77941537169535
111.77941536715923
111.77941537169532
111.77941540213303
111.77941557073778
111.77941649433644
111.7794215191592
111.77944864012427
111.77959362169003
111.78035949968908
111.78434497594486
111.80468078883924
111.90570681923658
112.38858675489968
114.56130668148947
123.3308441637402
150.7507259623955
177.4449254499899
150.75069422960632
142.23351590206363
140.12707527227167
139.6593770872348
139.5616041995909
139.54193351927583
139.53808018104704
139.5373399479224
139.53719986444995
139.53717366621356
139.5371688134098
139.5371679216035
139.53716775883052
139.53716772944995
139.53716772507187
139.53716772944995
139.53716775883052
139.53716792160392
139.53716881341225
139.53717366619858
139.53719986447803
139.5373399482851
139.53808018089867
139.54193352885326
139.56160416965307
139.65937718187774
140.12707455844503
142.23351659699082
150.75071221547165
177.44492795006857
