# vtk DataFile Version 2.0
Unstructured Grid Example
ASCII
DATASET UNSTRUCTURED_GRID

POINTS 961 float
0.100000001 0.00499999989 0
0.0966666639 0.00499999989 0
0.0933333337 0.00499999989 0
0.0900000036 0.00499999989 0
0.086666666 0.00499999989 0
0.0833333358 0.00499999989 0
0.0799999982 0.00499999989 0
0.0766666681 0.00499999989 0
0.0733333305 0.00499999989 0
0.0700000003 0.00499999989 0
0.0666666701 0.00499999989 0
0.0633333325 0.00499999989 0
0.0599999987 0.00499999989 0
0.0566666685 0.00499999989 0
0.0533333346 0.00499999989 0
0.0500000007 0.00499999989 0
0.0466666669 0.00499999989 0
0.043333333 0.00499999989 0
0.0399999991 0.00499999989 0
0.0366666652 0.00499999989 0
0.0333333351 0.00499999989 0
0.0299999993 0.00499999989 0
0.0266666673 0.00499999989 0
0.0233333334 0.00499999989 0
0.0199999996 0.00499999989 0
0.0166666675 0.00499999989 0
0.0133333337 0.00499999989 0
0.00999999978 0.00499999989 0
0.00666666683 0.00499999989 0
0.00333333341 0.00499999989 0
0.0 0.00499999989 0
0.100000001 0.00166666671 0
0.0966666639 0.00166666671 0
0.0933333337 0.00166666671 0
0.0900000036 0.00166666671 0
0.086666666 0.00166666671 0
0.0833333358 0.00166666671 0
0.0799999982 0.00166666671 0
0.0766666681 0.00166666671 0
0.0733333305 0.00166666671 0
0.0700000003 0.00166666671 0
0.0666666701 0.00166666671 0
0.0633333325 0.00166666671 0
0.0599999987 0.00166666671 0
0.0566666685 0.00166666671 0
0.0533333346 0.00166666671 0
0.0500000007 0.00166666671 0
0.0466666669 0.00166666671 0
0.043333333 0.00166666671 0
0.0399999991 0.00166666671 0
0.0366666652 0.00166666671 0
0.0333333351 0.00166666671 0
0.0299999993 0.00166666671 0
0.0266666673 0.00166666671 0
0.0233333334 0.00166666671 0
0.0199999996 0.00166666671 0
0.0166666675 0.00166666671 0
0.0133333337 0.00166666671 0
0.00999999978 0.00166666671 0
0.00666666683 0.00166666671 0
0.00333333341 0.00166666671 0
0.0 0.00166666671 0
0.100000001 -0.00166666671 0
0.0966666639 -0.00166666671 0
0.0933333337 -0.00166666671 0
0.0900000036 -0.00166666671 0
0.086666666 -0.00166666671 0
0.0833333358 -0.00166666671 0
0.0799999982 -0.00166666671 0
0.0766666681 -0.00166666671 0
0.0733333305 -0.00166666671 0
0.0700000003 -0.00166666671 0
0.0666666701 -0.00166666671 0
0.0633333325 -0.00166666671 0
0.0599999987 -0.00166666671 0
0.0566666685 -0.00166666671 0
0.0533333346 -0.00166666671 0
0.0500000007 -0.00166666671 0
0.0466666669 -0.00166666671 0
0.043333333 -0.00166666671 0
0.0399999991 -0.00166666671 0
0.0366666652 -0.00166666671 0
0.0333333351 -0.00166666671 0
0.0299999993 -0.00166666671 0
0.0266666673 -0.00166666671 0
0.0233333334 -0.00166666671 0
0.0199999996 -0.00166666671 0
0.0166666675 -0.00166666671 0
0.0133333337 -0.00166666671 0
0.00999999978 -0.00166666671 0
0.00666666683 -0.00166666671 0
0.00333333341 -0.00166666671 0
0.0 -0.00166666671 0
0.100000001 -0.00499999989 0
0.0966666639 -0.00499999989 0
0.0933333337 -0.00499999989 0
0.0900000036 -0.00499999989 0
0.086666666 -0.00499999989 0
0.0833333358 -0.00499999989 0
0.0799999982 -0.00499999989 0
0.0766666681 -0.00499999989 0
0.0733333305 -0.00499999989 0
0.0700000003 -0.00499999989 0
0.0666666701 -0.00499999989 0
0.0633333325 -0.00499999989 0
0.0599999987 -0.00499999989 0
0.0566666685 -0.00499999989 0
0.0533333346 -0.00499999989 0
0.0500000007 -0.00499999989 0
0.0466666669 -0.00499999989 0
0.043333333 -0.00499999989 0
0.0399999991 -0.00499999989 0
0.0366666652 -0.00499999989 0
0.0333333351 -0.00499999989 0
0.0299999993 -0.00499999989 0
0.0266666673 -0.00499999989 0
0.0233333334 -0.00499999989 0
0.0199999996 -0.00499999989 0
0.0166666675 -0.00499999989 0
0.0133333337 -0.00499999989 0
0.00999999978 -0.00499999989 0
0.00666666683 -0.00499999989 0
0.00333333341 -0.00499999989 0
0.0 -0.00499999989 0
0.100000001 -0.00833333377 0
0.0966666639 -0.00833333377 0
0.0933333337 -0.00833333377 0
0.0900000036 -0.00833333377 0
0.086666666 -0.00833333377 0
0.0833333358 -0.00833333377 0
0.0799999982 -0.00833333377 0
0.0766666681 -0.00833333377 0
0.0733333305 -0.00833333377 0
0.0700000003 -0.00833333377 0
0.0666666701 -0.00833333377 0
0.0633333325 -0.00833333377 0
0.0599999987 -0.00833333377 0
0.0566666685 -0.00833333377 0
0.0533333346 -0.00833333377 0
0.0500000007 -0.00833333377 0
0.0466666669 -0.00833333377 0
0.043333333 -0.00833333377 0
0.0399999991 -0.00833333377 0
0.0366666652 -0.00833333377 0
0.0333333351 -0.00833333377 0
0.0299999993 -0.00833333377 0
0.0266666673 -0.00833333377 0
0.0233333334 -0.00833333377 0
0.0199999996 -0.00833333377 0
0.0166666675 -0.00833333377 0
0.0133333337 -0.00833333377 0
0.00999999978 -0.00833333377 0
0.00666666683 -0.00833333377 0
0.00333333341 -0.00833333377 0
0.0 -0.00833333377 0
0.100000001 -0.0116666667 0
0.0966666639 -0.0116666667 0
0.0933333337 -0.0116666667 0
0.0900000036 -0.0116666667 0
0.086666666 -0.0116666667 0
0.0833333358 -0.0116666667 0
0.0799999982 -0.0116666667 0
0.0766666681 -0.0116666667 0
0.0733333305 -0.0116666667 0
0.0700000003 -0.0116666667 0
0.0666666701 -0.0116666667 0
0.0633333325 -0.0116666667 0
0.0599999987 -0.0116666667 0
0.0566666685 -0.0116666667 0
0.0533333346 -0.0116666667 0
0.0500000007 -0.0116666667 0
0.0466666669 -0.0116666667 0
0.043333333 -0.0116666667 0
0.0399999991 -0.0116666667 0
0.0366666652 -0.0116666667 0
0.0333333351 -0.0116666667 0
0.0299999993 -0.0116666667 0
0.0266666673 -0.0116666667 0
0.0233333334 -0.0116666667 0
0.0199999996 -0.0116666667 0
0.0166666675 -0.0116666667 0
0.0133333337 -0.0116666667 0
0.00999999978 -0.0116666667 0
0.00666666683 -0.0116666667 0
0.00333333341 -0.0116666667 0
0.0 -0.0116666667 0
0.100000001 -0.0149999997 0
0.0966666639 -0.0149999997 0
0.0933333337 -0.0149999997 0
0.0900000036 -0.0149999997 0
0.086666666 -0.0149999997 0
0.0833333358 -0.0149999997 0
0.0799999982 -0.0149999997 0
0.0766666681 -0.0149999997 0
0.0733333305 -0.0149999997 0
0.0700000003 -0.0149999997 0
0.0666666701 -0.0149999997 0
0.0633333325 -0.0149999997 0
0.0599999987 -0.0149999997 0
0.0566666685 -0.0149999997 0
0.0533333346 -0.0149999997 0
0.0500000007 -0.0149999997 0
0.0466666669 -0.0149999997 0
0.043333333 -0.0149999997 0
0.0399999991 -0.0149999997 0
0.0366666652 -0.0149999997 0
0.0333333351 -0.0149999997 0
0.0299999993 -0.0149999997 0
0.0266666673 -0.0149999997 0
0.0233333334 -0.0149999997 0
0.0199999996 -0.0149999997 0
0.0166666675 -0.0149999997 0
0.0133333337 -0.0149999997 0
0.00999999978 -0.0149999997 0
0.00666666683 -0.0149999997 0
0.00333333341 -0.0149999997 0
0.0 -0.0149999997 0
0.100000001 -0.0183333326 0
0.0966666639 -0.0183333326 0
0.0933333337 -0.0183333326 0
0.0900000036 -0.0183333326 0
0.086666666 -0.0183333326 0
0.0833333358 -0.0183333326 0
0.0799999982 -0.0183333326 0
0.0766666681 -0.0183333326 0
0.0733333305 -0.0183333326 0
0.0700000003 -0.0183333326 0
0.0666666701 -0.0183333326 0
0.0633333325 -0.0183333326 0
0.0599999987 -0.0183333326 0
0.0566666685 -0.0183333326 0
0.0533333346 -0.0183333326 0
0.0500000007 -0.0183333326 0
0.0466666669 -0.0183333326 0
0.043333333 -0.0183333326 0
0.0399999991 -0.0183333326 0
0.0366666652 -0.0183333326 0
0.0333333351 -0.0183333326 0
0.0299999993 -0.0183333326 0
0.0266666673 -0.0183333326 0
0.0233333334 -0.0183333326 0
0.0199999996 -0.0183333326 0
0.0166666675 -0.0183333326 0
0.0133333337 -0.0183333326 0
0.00999999978 -0.0183333326 0
0.00666666683 -0.0183333326 0
0.00333333341 -0.0183333326 0
0.0 -0.0183333326 0
0.100000001 -0.0216666665 0
0.0966666639 -0.0216666665 0
0.0933333337 -0.0216666665 0
0.0900000036 -0.0216666665 0
0.086666666 -0.0216666665 0
0.0833333358 -0.0216666665 0
0.0799999982 -0.0216666665 0
0.0766666681 -0.0216666665 0
0.0733333305 -0.0216666665 0
0.0700000003 -0.0216666665 0
0.0666666701 -0.0216666665 0
0.0633333325 -0.0216666665 0
0.0599999987 -0.0216666665 0
0.0566666685 -0.0216666665 0
0.0533333346 -0.0216666665 0
0.0500000007 -0.0216666665 0
0.0466666669 -0.0216666665 0
0.043333333 -0.0216666665 0
0.0399999991 -0.0216666665 0
0.0366666652 -0.0216666665 0
0.0333333351 -0.0216666665 0
0.0299999993 -0.0216666665 0
0.0266666673 -0.0216666665 0
0.0233333334 -0.0216666665 0
0.0199999996 -0.0216666665 0
0.0166666675 -0.0216666665 0
0.0133333337 -0.0216666665 0
0.00999999978 -0.0216666665 0
0.00666666683 -0.0216666665 0
0.00333333341 -0.0216666665 0
0.0 -0.0216666665 0
0.100000001 -0.0250000004 0
0.0966666639 -0.0250000004 0
0.0933333337 -0.0250000004 0
0.0900000036 -0.0250000004 0
0.086666666 -0.0250000004 0
0.0833333358 -0.0250000004 0
0.0799999982 -0.0250000004 0
0.0766666681 -0.0250000004 0
0.0733333305 -0.0250000004 0
0.0700000003 -0.0250000004 0
0.0666666701 -0.0250000004 0
0.0633333325 -0.0250000004 0
0.0599999987 -0.0250000004 0
0.0566666685 -0.0250000004 0
0.0533333346 -0.0250000004 0
0.0500000007 -0.0250000004 0
0.0466666669 -0.0250000004 0
0.043333333 -0.0250000004 0
0.0399999991 -0.0250000004 0
0.0366666652 -0.0250000004 0
0.0333333351 -0.0250000004 0
0.0299999993 -0.0250000004 0
0.0266666673 -0.0250000004 0
0.0233333334 -0.0250000004 0
0.0199999996 -0.0250000004 0
0.0166666675 -0.0250000004 0
0.0133333337 -0.0250000004 0
0.00999999978 -0.0250000004 0
0.00666666683 -0.0250000004 0
0.00333333341 -0.0250000004 0
0.0 -0.0250000004 0
0.100000001 -0.0283333343 0
0.0966666639 -0.0283333343 0
0.0933333337 -0.0283333343 0
0.0900000036 -0.0283333343 0
0.086666666 -0.0283333343 0
0.0833333358 -0.0283333343 0
0.0799999982 -0.0283333343 0
0.0766666681 -0.0283333343 0
0.0733333305 -0.0283333343 0
0.0700000003 -0.0283333343 0
0.0666666701 -0.0283333343 0
0.0633333325 -0.0283333343 0
0.0599999987 -0.0283333343 0
0.0566666685 -0.0283333343 0
0.0533333346 -0.0283333343 0
0.0500000007 -0.0283333343 0
0.0466666669 -0.0283333343 0
0.043333333 -0.0283333343 0
0.0399999991 -0.0283333343 0
0.0366666652 -0.0283333343 0
0.0333333351 -0.0283333343 0
0.0299999993 -0.0283333343 0
0.0266666673 -0.0283333343 0
0.0233333334 -0.0283333343 0
0.0199999996 -0.0283333343 0
0.0166666675 -0.0283333343 0
0.0133333337 -0.0283333343 0
0.00999999978 -0.0283333343 0
0.00666666683 -0.0283333343 0
0.00333333341 -0.0283333343 0
0.0 -0.0283333343 0
[...]
POINT_DATA 961
SCALARS Temp float 1
LOOKUP_TABLE default
149.55694404571847
129.23999076568185
125.85392329223424
125.28574818439374
125.1903667788768
125.17432721718214
125.17162906403361
125.17117482154329
125.1710983274175
125.1710854399792
125.1710832682602
125.17108290218363
125.17108284046519
125.17108283005884
125.17108282831195
125.17108282806576
125.17108282831194
125.17108283005882
125.17108284046515
125.17108290218387
125.17108326825903
125.17108543998167
125.17109832745376
125.17117482152622
125.17162906528895
125.17432721251542
125.19036679692461
125.28574800741978
125.85392353534613
129.24000166561456
149.55694830253933
129.23999775767672
108.45601290414496
104.96661885347535
104.38089876185262
104.28239089292501
104.26582074971752
104.26303097842433
104.26256119338642
104.26248204379871
104.2624687061268
104.26246645783964
104.26246607878814
104.26246601486825
104.26246600408918
104.26246600227934
104.26246600202433
104.26246600227935
104.26246600408916
104.2624660148683
104.26246607878836
104.26246645783841
104.26246870612938
104.26248204383612
104.26256119336884
104.2630309797224
104.26582074489548
104.28239091156546
104.38089857933366
104.96661910400415
108.45602408020687
129.24000208883007
125.85391903674336
104.96660724563374
101.43748293136666
100.84241732108177
100.74213695856011
100.72523233895312
100.72238289677787
100.72190245060122
100.72182143794069
100.72180777463714
100.72180547002004
100.72180508123022
100.72180501563571
100.72180500456888
100.72180500271013
100.7218050024481
100.72180500271007
100.721805004569
100.72180501563577
100.7218050812304
100.72180547001881
100.72180777463977
100.72182143797909
100.72190245058322
100.72238289810427
100.7252323340321
100.7421369775482
100.84241713554611
101.4374831851154
104.96661849793863
125.8539233714881
125.28574339680904
104.38088658954477
100.84241676318703
100.24391007251921
100.14277970860067
100.12570024280696
100.12281613842205
100.12232921641011
100.12224700751017
100.12223312881659
100.12223078565205
100.12223039005156
100.12223032325856
100.1222303119825
100.12223031008739
100.1222303098201
100.12223031008736
100.12223031198248
100.12223032325865
100.12223039005173
100.12223078565079
100.12223312881936
100.1222470075491
100.12232921639188
100.12281613976499
100.12570023783289
100.14277972775983
100.24390988577947
100.84241701784093
104.38089785652032
125.28574773117822
125.19036218655623
104.28237891925384
100.74213660519158
100.14277991512367
100.04134691351287
100.02418973857525
100.0212886361589
100.0207981974718
100.02071530378336
100.02070129452981
100.0206989271673
100.02069852713262
100.02069845953935
100.02069844811977
100.02069844619938
100.02069844592833
100.02069844619936
100.02069844811982
100.02069845953942
100.02069852713278
100.02069892716598
100.02070129453254
100.02071530382264
100.02079819745336
100.02128863751035
100.02418973357663
100.04134693273802
100.14277972803794
100.74213686003115
104.28239018885546
125.19036652093968
125.17432260317118
104.2658087531273
100.72523196269215
100.12570042636054
100.02418971542114
100.00700557916544
100.00409733886582
100.00360526268896
100.00352201743054
100.00350793715407
100.0035055558444
100.00350515315303
100.00350508506169
100.00350507355034
100.0035050716132
100.00350507133975
100.0035050716132
100.00350507355033
100.00350508506169
100.00350515315328
100.0035055558431
100.0035079371568
100.00352201746999
100.0036052626705
100.0040973402209
100.00700557415779
100.02418973466541
100.12570023919358
100.72523221756725
104.26582002320184
125.17432693754279
125.17162445389098
104.26301898574445
100.7223825245882
100.12281632612007
100.02128861714966
100.0040973430256
100.00118667491584
100.00069394030439
100.00061053820058
100.00059642314513
100.00059403457709
100.00059363042085
100.0005935620431
100.00059355047692
100.00059354852955
100.00059354825454
100.0005935485296
100.00059355047694
100.00059356204322
100.00059363042111
100.00059403457583
100.00059642314788
100.00061053824014
100.00069394028596
100.00118667627223
100.00409733801531
100.02128863639841
100.12281613893597
100.72238277947001
104.26303025590097
125.17162878826213
125.17117021017015
104.2625491994187
100.72190207710945
100.12232940279493
100.02079817713667
100.0036052655208
100.00069393897444
100.00020098379719
100.00011752072278
100.0001033906976
100.00010099871537
100.00010059382564
100.00010052529618
100.00010051369954
100.00010051174635
100.00010051147041
100.00010051174634
100.00010051369962
100.0001005252962
100.00010059382588
100.00010099871402
100.00010339070037
100.00011752076237
100.00020098377865
100.00069394033119
100.00360526050983
100.02079819638645
100.12232921560751
100.72190233199247
104.26256046958959
125.1711745445411
125.17109371604663
104.26247004983064
100.72182106445105
100.12224719389808
100.02071528345064
100.0035220202651
100.00061053687314
100.00011752072547
100.00003403746503
100.0000199017747
100.00001750836671
100.00001710314376
100.00001703454082
100.00001702292867
100.0000170209722
100.00001702069581
100.00001702097224
100.00001702292867
100.00001703454082
100.0000171031439
100.00001750836532
100.0000199017773
100.00003403750462
100.0001175207069
100.00061053823005
100.00352201525392
100.02071530270055
100.12224700671003
100.72182131933424
104.26248132000399
125.1710980504175
125.17108082856329
104.26245671211174
100.72180740109981
100.1222333151563
100.02070127414827
100.00350793993968
100.00059642176862
100.00010339065115
100.00001990172557
100.00000576417656
100.00000337024058
100.00000296488206
100.00000289624661
100.00000288462718
100.00000288266918
100.00000288239252
100.00000288266925
100.00000288462725
100.00000289624664
100.00000296488221
100.0000033702392
100.00000576417929
100.00001990176519
100.00010339063263
100.00059642312551
100.00350793492848
100.02070129339826
100.12223312796809
100.72180765598301
104.26246798228551
125.17108516293418
125.17107865684268
104.2624544638227
100.72180509648084
100.12223097198991
100.02069890678384
100.00350555862815
100.0005940331987
100.00010099866707
100.00001750831572
100.0000033702387
100.0000009761307
100.00000057072282
100.00000050207453
100.00000049045195
100.00000048849327
100.00000048821644
100.00000048849326
100.00000049045194
100.00000050207454
100.00000057072297
100.00000097612933
100.00000337024142
100.00001750835523
100.00010099864842
100.00059403455562
100.003505553617
100.02069892603384
100.12223078480173
100.721805351364
104.26246573399656
125.17108299121352
125.17107829076708
104.26245408477243
100.72180470769216
100.1222305763905
100.02069850675036
100.00350515593794
100.00059362904359
100.0001005937785
100.00001710309395
100.00000296488133
100.00000057072396
100.0000001653001
100.00000009664724
100.00000008502344
100.00000008306444
100.0000000827875
100.00000008306442
100.00000008502336
100.0000000966472
100.00000016530022
100.00000057072265
100.00000296488402
100.00001710313356
100.00010059375997
100.00059363040053
100.00350515092674
100.02069852600036
100.12223038920234
100.72180496257536
104.26246535494623
125.17108262513803
125.1710782290486
104.26245402085235
100.72180464209755
100.12223050959753
100.02069843915702
100.00350508784643
100.00059356066582
100.00010052524894
100.00001703449087
100.00000289624587
100.00000050207568
100.00000009664711
100.00000002799275
100.00000001636847
100.00000001440941
100.00000001413244
100.00000001440941
100.00000001636855
100.00000002799273
100.00000009664727
100.00000050207422
100.00000289624853
100.00001703453044
100.00010052523041
100.00059356202267
100.0035050828352
100.02069845840698
100.12223032240931
100.72180489698079
104.2624652910262
125.17108256341936
125.17107821864212
104.26245401007313
100.72180463103074
100.12223049832134
100.02069842773743
100.00350507633502
100.00059354909956
100.00010051365231
100.00001702287878
100.00000288462635
100.00000049045306
100.00000008502326
100.00000001636855
100.0000000047441
100.00000000278493
100.00000000250806
100.00000000278492
100.0000000047441
100.00000001636849
100.00000008502344
100.00000049045163
100.00000288462911
100.00001702291831
100.00010051363367
100.00059355045641
100.00350507132387
100.02069844698741
100.12223031113315
100.72180488591395
104.26246528024696
125.1710825530131
125.17107821689517
104.26245400826338
100.72180462917191
100.12223049642625
100.02069842581702
100.00350507439788
100.00059354715218
100.00010051169903
100.00001702092231
100.00000288266837
100.0000004884943
100.00000008306426
100.0000000144093
100.00000000278496
100.00000000082574
100.00000000054884
100.00000000082578
100.00000000278492
100.00000001440935
100.0000000830644
100.00000048849289
100.00000288267107
100.00001702096185
100.0001005116805
100.00059354850904
100.00350506938678
100.02069844506705
100.12223030923803
100.72180488405512
104.26246527843726
125.17108255126612
125.17107821664905
104.26245400800833
100.72180462890987
100.12223049615903
100.02069842554603
100.00350507412442
100.00059354687718
100.00010051142308
100.00001702064584
100.00000288239173
100.00000048821744
100.00000008278732
100.00000001413247
100.00000000250796
100.00000000054887
100.00000000027194
100.00000000054885
100.00000000250803
100.0000000141324
100.0000000827875
100.00000048821602
100.00000288239434
100.00001702068538
100.00010051140448
100.00059354823404
100.00350506911326
100.02069844479608
100.12223030897079
100.72180488379307
104.26246527818218
125.17108255102005
125.17107821689527
104.26245400826339
100.7218046291719
100.12223049642617
100.020698425817
100.00350507439795
100.00059354715215
100.00010051169905
100.00001702092227
100.00000288266834
100.00000048849432
100.00000008306428
100.00000001440932
100.00000000278493
100.00000000082571
100.00000000054881
100.00000000082572
100.00000000278496
100.00000001440941
100.00000008306439
100.00000048849292
100.0000028826711
100.00001702096185
100.00010051168042
100.00059354850906
100.00350506938679
100.02069844506701
100.12223030923802
100.72180488405516
104.26246527843726
125.17108255126615
125.17107821864218
104.26245401007316
100.72180463103074
100.1222304983213
100.02069842773746
100.0035050763351
100.00059354909959
100.0001005136523
100.00001702287871
100.0000028846264
100.00000049045302
100.00000008502326
100.0000000163685
100.00000000474407
100.00000000278492
100.00000000250802
100.00000000278493
100.00000000474411
100.00000001636847
100.0000000850234
100.00000049045165
100.0000028846291
100.00001702291829
100.00010051363373
100.00059355045646
100.00350507132386
100.02069844698747
100.12223031113317
100.72180488591393
104.26246528024704
125.17108255301306
125.17107822904856
104.26245402085235
100.72180464209755
100.12223050959751
100.02069843915704
100.00350508784639
100.00059356066585
100.00010052524895
100.00001703449094
100.00000289624587
100.00000050207565
100.00000009664713
100.00000002799268
100.00000001636853
100.00000001440935
100.00000001413241
100.00000001440937
100.00000001636852
100.00000002799275
100.00000009664734
100.00000050207427
100.00000289624859
100.00001703453042
100.00010052523032
100.00059356202271
100.00350508283525
100.02069845840697
100.12223032240934
100.72180489698081
104.26246529102619
125.17108256341939
125.17107829076716
104.26245408477247
100.7218047076922
100.12223057639058
100.02069850675045
100.00350515593803
100.00059362904364
100.0001005937786
100.00001710309405
100.00000296488142
100.00000057072404
100.00000016530018
100.0000000966473
100.00000008502344
100.00000008306442
100.00000008278755
100.00000008306445
100.00000008502349
100.00000009664721
100.00000016530034
100.00000057072273
100.00000296488416
100.00001710313354
100.00010059376007
100.00059363040062
100.00350515092687
100.02069852600044
100.12223038920243
100.72180496257543
104.26246535494627
125.1710826251381
125.17107865684358
104.26245446382363
100.72180509648182
100.12223097199087
100.02069890678482
100.00350555862919
100.00059403319975
100.00010099866807
100.00001750831673
100.00000337023971
100.00000097613179
100.00000057072383
100.00000050207557
100.000000490453
100.0000004884943
100.00000048821741
100.00000048849425
100.00000049045298
100.00000050207557
100.00000057072401
100.00000097613041
100.00000337024244
100.00001750835638
100.0001009986495
100.00059403455658
100.00350555361801
100.02069892603481
100.12223078480267
100.72180535136506
104.26246573399747
125.1710829912145
125.17108082856198
104.26245671211032
100.72180740109837
100.12223331515489
100.02070127414687
100.00350793993823
100.00059642176723
100.00010339064977
100.0000199017241
100.00000576417521
100.00000337023918
100.00000296488066
100.00000289624528
100.0000028846258
100.00000288266784
100.00000288239109
100.00000288266779
100.0000028846258
100.0000028962452
100.00000296488075
100.00000337023788
100.0000057641779
100.00001990176371
100.00010339063118
100.00059642312414
100.00350793492709
100.02070129339683
100.12223312796678
100.72180765598162
104.26246798228415
125.17108516293288
125.17109371607738
104.26247004986246
100.72182106448362
100.12224719393126
100.02071528348405
100.0035220202986
100.00061053690683
100.00011752075916
100.00003403749876
100.0000199018084
100.00001750840045
100.00001710317751
100.00001703457455
100.00001702296238
100.00001702100597
100.00001702072949
100.00001702100589
100.00001702296233
100.00001703457457
100.00001710317761
100.00001750839905
100.0000199018111
100.00003403753828
100.00011752074053
100.00061053826359
100.0035220152875
100.020715302734
100.12224700674317
100.72182131936681
104.26248132003579
125.1710980504483
125.17117021012452
104.2625491993714
100.7219020770611
100.12232940274596
100.0207981770874
100.00360526547128
100.00069393892487
100.00020098374762
100.00011752067319
100.00010339064806
100.00010099866576
100.00010059377614
100.0001005252466
100.00010051364994
100.00010051169673
100.00010051142083
100.00010051169667
100.00010051364991
100.00010052524655
100.00010059377624
100.0001009986644
100.00010339065075
100.00011752071269
100.00020098372903
100.00069394028161
100.00360526046025
100.02079819633707
100.12232921555858
100.72190233194418
104.26256046954236
125.17117454449532
125.1716244553566
104.26301898725998
100.72238252613676
100.12281632768786
100.02128861872737
100.00409734460757
100.00118667649939
100.00069394188846
100.00061053978472
100.0005964247294
100.00059403616127
100.00059363200504
100.00059356362729
100.0005935520611
100.00059355011375
100.00059354983868
100.00059355011368
100.00059355206112
100.00059356362732
100.00059363200519
100.00059403615994
100.00059642473208
100.00061053982427
100.00069394186986
100.00118667785576
100.00409733959737
100.02128863797614
100.12281614050384
100.72238278101848
104.26303025741652
125.1716287897278
125.1743226056967
104.26580875573734
100.72523196535572
100.12570042905327
100.02418971812713
100.00700558187636
100.0040973415783
100.00360526540172
100.00352202014342
100.003507939867
100.00350555855744
100.00350515586598
100.00350508777456
100.00350507626325
100.00350507432617
100.00350507405264
100.00350507432621
100.00350507626322
100.00350508777451
100.0035051558662
100.00350555855604
100.00350793986969
100.00352202018288
100.0036052653833
100.00409734293338
100.00700557686876
100.02418973737147
100.12570024188634
100.72523222023088
104.26582002581185
125.17432694006837
125.19036216367837
104.28237889562367
100.74213658112322
100.14277989083918
100.0413468891457
100.02418971418403
100.02128861176183
100.02079817307342
100.0207152793848
100.02070127013113
100.02069890276857
100.02069850273399
100.0206984351407
100.02069842372111
100.02069842180067
100.0206984215297
100.02069842180069
100.02069842372111
100.02069843514073
100.02069850273412
100.0206989027672
100.02070127013383
100.02071527942401
100.02079817305494
100.02128861311321
100.02418970918536
100.04134690837081
100.14277970375335
100.74213683596285
104.2823901652253
125.19036649806198
125.28574354995767
104.38088674750972
100.84241692376149
100.24391023414657
100.14277987052876
100.12570040480277
100.12281630043171
100.12232937842263
100.1222471695231
100.12223329082964
100.12223094766513
100.12223055206456
100.12223048527169
100.12223047399549
100.12223047210043
100.12223047183315
100.1222304721004
100.12223047399551
100.12223048527161
100.1222305520647
100.12223094766377
100.12223329083231
100.12224716956202
100.12232937840423
100.12281630177465
100.12570039982862
100.14277988968789
100.2439100474068
100.84241717841535
104.38089801448537
125.28574788432688
125.85391854325039
104.96660673694824
101.4374824163854
100.84241680431408
100.7421364413741
100.7252318216811
100.7223823794897
100.72190193331006
100.72182092064898
100.72180725734535
100.72180495272816
100.72180456393842
100.72180449834387
100.72180448727707
100.72180448541828
100.72180448515621
100.72180448541828
100.72180448727708
100.72180449834393
100.72180456393858
100.7218049527269
100.72180725734796
100.72182092068732
100.72190193329202
100.72238238081607
100.7252318167601
100.74213646036222
100.8424166187784
101.43748267013413
104.96661798925321
125.85392287799513
129.24000670685484
108.45602207927746
104.96662809103084
104.38090801159274
104.28240014486705
104.2658300020552
104.2630402308308
104.26257044580494
104.26249129621925
104.26247795854769
104.26247571026057
104.26247533120915
104.26247526728929
104.2624752565101
104.26247525470033
104.2624752544453
104.26247525470032
104.26247525651011
104.26247526728925
104.26247533120934
104.26247571025931
104.26247795855026
104.26249129625673
104.26257044578733
104.26304023212886
104.2658299972332
104.28240016350759
104.38090782907369
104.96662834155954
108.45603325533934
129.24001103800825
149.55694755129548
129.23999433191153
125.85392686075747
125.28575175242311
125.19037034690777
125.1743307852044
125.17163263205569
125.1711783895652
125.1711018954394
125.17108900800109
125.17108683628216
125.17108647020552
125.17108640848704
125.17108639808067
125.17108639633382
125.17108639608762
125.17108639633375
125.17108639808073
125.17108640848706
125.17108647020574
125.17108683628085
125.17108900800355
125.17110189547557
125.1711783895481
125.17163263331103
125.17433078053767
125.19037036495544
125.28575157544921
125.85392710386931
129.24000523184418
149.55695180811628
