# vtk DataFile Version 2.0
Unstructured Grid Example
ASCII
DATASET UNSTRUCTURED_GRID

POINTS 961 float
0.100000001 0.00499999989 0
0.0966666639 0.00499999989 0
0.0933333337 0.00499999989 0
0.0900000036 0.00499999989 0
0.086666666 0.00499999989 0
0.0833333358 0.00499999989 0
0.0799999982 0.00499999989 0
0.0766666681 0.00499999989 0
0.0733333305 0.00499999989 0
0.0700000003 0.00499999989 0
0.0666666701 0.00499999989 0
0.0633333325 0.00499999989 0
0.0599999987 0.00499999989 0
0.0566666685 0.00499999989 0
0.0533333346 0.00499999989 0
0.0500000007 0.00499999989 0
0.0466666669 0.00499999989 0
0.043333333 0.00499999989 0
0.0399999991 0.00499999989 0
0.0366666652 0.00499999989 0
0.0333333351 0.00499999989 0
0.0299999993 0.00499999989 0
0.0266666673 0.00499999989 0
0.0233333334 0.00499999989 0
0.0199999996 0.00499999989 0
0.0166666675 0.00499999989 0
0.0133333337 0.00499999989 0
0.00999999978 0.00499999989 0
0.00666666683 0.00499999989 0
0.00333333341 0.00499999989 0
0.0 0.00499999989 0
0.100000001 0.00166666671 0
0.0966666639 0.00166666671 0
0.0933333337 0.00166666671 0
0.0900000036 0.00166666671 0
0.086666666 0.00166666671 0
0.0833333358 0.00166666671 0
0.0799999982 0.00166666671 0
0.0766666681 0.00166666671 0
0.0733333305 0.00166666671 0
0.0700000003 0.00166666671 0
0.0666666701 0.00166666671 0
0.0633333325 0.00166666671 0
0.0599999987 0.00166666671 0
0.0566666685 0.00166666671 0
0.0533333346 0.00166666671 0
0.0500000007 0.00166666671 0
0.0466666669 0.00166666671 0
0.043333333 0.00166666671 0
0.0399999991 0.00166666671 0
0.0366666652 0.00166666671 0
0.0333333351 0.00166666671 0
0.0299999993 0.00166666671 0
0.0266666673 0.00166666671 0
0.0233333334 0.00166666671 0
0.0199999996 0.00166666671 0
0.0166666675 0.00166666671 0
0.0133333337 0.00166666671 0
0.00999999978 0.00166666671 0
0.00666666683 0.00166666671 0
0.00333333341 0.00166666671 0
0.0 0.00166666671 0
0.100000001 -0.00166666671 0
0.0966666639 -0.00166666671 0
0.0933333337 -0.00166666671 0
0.0900000036 -0.00166666671 0
0.086666666 -0.00166666671 0
0.0833333358 -0.00166666671 0
0.0799999982 -0.00166666671 0
0.0766666681 -0.00166666671 0
0.0733333305 -0.00166666671 0
0.0700000003 -0.00166666671 0
0.0666666701 -0.00166666671 0
0.0633333325 -0.00166666671 0
0.0599999987 -0.00166666671 0
0.0566666685 -0.00166666671 0
0.0533333346 -0.00166666671 0
0.0500000007 -0.00166666671 0
0.0466666669 -0.00166666671 0
0.043333333 -0.00166666671 0
0.0399999991 -0.00166666671 0
0.0366666652 -0.00166666671 0
0.0333333351 -0.00166666671 0
0.0299999993 -0.00166666671 0
0.0266666673 -0.00166666671 0
0.0233333334 -0.00166666671 0
0.0199999996 -0.00166666671 0
0.0166666675 -0.00166666671 0
0.0133333337 -0.00166666671 0
0.00999999978 -0.00166666671 0
0.00666666683 -0.00166666671 0
0.00333333341 -0.00166666671 0
0.0 -0.00166666671 0
0.100000001 -0.00499999989 0
0.0966666639 -0.00499999989 0
0.0933333337 -0.00499999989 0
0.0900000036 -0.00499999989 0
0.086666666 -0.00499999989 0
0.0833333358 -0.00499999989 0
0.0799999982 -0.00499999989 0
0.0766666681 -0.00499999989 0
0.0733333305 -0.00499999989 0
0.0700000003 -0.00499999989 0
0.0666666701 -0.00499999989 0
0.0633333325 -0.00499999989 0
0.0599999987 -0.00499999989 0
0.0566666685 -0.00499999989 0
0.0533333346 -0.00499999989 0
0.0500000007 -0.00499999989 0
0.0466666669 -0.00499999989 0
0.043333333 -0.00499999989 0
0.0399999991 -0.00499999989 0
0.0366666652 -0.00499999989 0
0.0333333351 -0.00499999989 0
0.0299999993 -0.00499999989 0
0.0266666673 -0.00499999989 0
0.0233333334 -0.00499999989 0
0.0199999996 -0.00499999989 0
0.0166666675 -0.00499999989 0
0.0133333337 -0.00499999989 0
0.00999999978 -0.00499999989 0
0.00666666683 -0.00499999989 0
0.00333333341 -0.00499999989 0
0.0 -0.00499999989 0
0.100000001 -0.00833333377 0
0.0966666639 -0.00833333377 0
0.0933333337 -0.00833333377 0
0.0900000036 -0.00833333377 0
0.086666666 -0.00833333377 0
0.0833333358 -0.00833333377 0
0.0799999982 -0.00833333377 0
0.0766666681 -0.00833333377 0
0.0733333305 -0.00833333377 0
0.0700000003 -0.00833333377 0
0.0666666701 -0.00833333377 0
0.0633333325 -0.00833333377 0
0.0599999987 -0.00833333377 0
0.0566666685 -0.00833333377 0
0.0533333346 -0.00833333377 0
0.0500000007 -0.00833333377 0
0.0466666669 -0.00833333377 0
0.043333333 -0.00833333377 0
0.0399999991 -0.00833333377 0
0.0366666652 -0.00833333377 0
0.0333333351 -0.00833333377 0
0.0299999993 -0.00833333377 0
0.0266666673 -0.00833333377 0
0.0233333334 -0.00833333377 0
0.0199999996 -0.00833333377 0
0.0166666675 -0.00833333377 0
0.0133333337 -0.00833333377 0
0.00999999978 -0.00833333377 0
0.00666666683 -0.00833333377 0
0.00333333341 -0.00833333377 0
0.0 -0.00833333377 0
0.100000001 -0.0116666667 0
0.0966666639 -0.0116666667 0
0.0933333337 -0.0116666667 0
0.0900000036 -0.0116666667 0
0.086666666 -0.0116666667 0
0.0833333358 -0.0116666667 0
0.0799999982 -0.0116666667 0
0.0766666681 -0.0116666667 0
0.0733333305 -0.0116666667 0
0.0700000003 -0.0116666667 0
0.0666666701 -0.0116666667 0
0.0633333325 -0.0116666667 0
0.0599999987 -0.0116666667 0
0.0566666685 -0.0116666667 0
0.0533333346 -0.0116666667 0
0.0500000007 -0.0116666667 0
0.0466666669 -0.0116666667 0
0.043333333 -0.0116666667 0
0.0399999991 -0.0116666667 0
0.0366666652 -0.0116666667 0
0.0333333351 -0.0116666667 0
0.0299999993 -0.0116666667 0
0.0266666673 -0.0116666667 0
0.0233333334 -0.0116666667 0
0.0199999996 -0.0116666667 0
0.0166666675 -0.0116666667 0
0.0133333337 -0.0116666667 0
0.00999999978 -0.0116666667 0
0.00666666683 -0.0116666667 0
0.00333333341 -0.0116666667 0
0.0 -0.0116666667 0
0.100000001 -0.0149999997 0
0.0966666639 -0.0149999997 0
0.0933333337 -0.0149999997 0
0.0900000036 -0.0149999997 0
0.086666666 -0.0149999997 0
0.0833333358 -0.0149999997 0
0.0799999982 -0.0149999997 0
0.0766666681 -0.0149999997 0
0.0733333305 -0.0149999997 0
0.0700000003 -0.0149999997 0
0.0666666701 -0.0149999997 0
0.0633333325 -0.0149999997 0
0.0599999987 -0.0149999997 0
0.0566666685 -0.0149999997 0
0.0533333346 -0.0149999997 0
0.0500000007 -0.0149999997 0
0.0466666669 -0.0149999997 0
0.043333333 -0.0149999997 0
0.0399999991 -0.0149999997 0
0.0366666652 -0.0149999997 0
0.0333333351 -0.0149999997 0
0.0299999993 -0.0149999997 0
0.0266666673 -0.0149999997 0
0.0233333334 -0.0149999997 0
0.0199999996 -0.0149999997 0
0.0166666675 -0.0149999997 0
0.0133333337 -0.0149999997 0
0.00999999978 -0.0149999997 0
0.00666666683 -0.0149999997 0
0.00333333341 -0.0149999997 0
0.0 -0.0149999997 0
0.100000001 -0.0183333326 0
0.0966666639 -0.0183333326 0
0.0933333337 -0.0183333326 0
0.0900000036 -0.0183333326 0
0.086666666 -0.0183333326 0
0.0833333358 -0.0183333326 0
0.0799999982 -0.0183333326 0
0.0766666681 -0.0183333326 0
0.0733333305 -0.0183333326 0
0.0700000003 -0.0183333326 0
0.0666666701 -0.0183333326 0
0.0633333325 -0.0183333326 0
0.0599999987 -0.0183333326 0
0.0566666685 -0.0183333326 0
0.0533333346 -0.0183333326 0
0.0500000007 -0.0183333326 0
0.0466666669 -0.0183333326 0
0.043333333 -0.0183333326 0
0.0399999991 -0.0183333326 0
0.0366666652 -0.0183333326 0
0.0333333351 -0.0183333326 0
0.0299999993 -0.0183333326 0
0.0266666673 -0.0183333326 0
0.0233333334 -0.0183333326 0
0.0199999996 -0.0183333326 0
0.0166666675 -0.0183333326 0
0.0133333337 -0.0183333326 0
0.00999999978 -0.0183333326 0
0.00666666683 -0.0183333326 0
0.00333333341 -0.0183333326 0
0.0 -0.0183333326 0
0.100000001 -0.0216666665 0
0.0966666639 -0.0216666665 0
0.0933333337 -0.0216666665 0
0.0900000036 -0.0216666665 0
0.086666666 -0.0216666665 0
0.0833333358 -0.0216666665 0
0.0799999982 -0.0216666665 0
0.0766666681 -0.0216666665 0
0.0733333305 -0.0216666665 0
0.0700000003 -0.0216666665 0
0.0666666701 -0.0216666665 0
0.0633333325 -0.0216666665 0
0.0599999987 -0.0216666665 0
0.0566666685 -0.0216666665 0
0.0533333346 -0.0216666665 0
0.0500000007 -0.0216666665 0
0.0466666669 -0.0216666665 0
0.043333333 -0.0216666665 0
0.0399999991 -0.0216666665 0
0.0366666652 -0.0216666665 0
0.0333333351 -0.0216666665 0
0.0299999993 -0.0216666665 0
0.0266666673 -0.0216666665 0
0.0233333334 -0.0216666665 0
0.0199999996 -0.0216666665 0
0.0166666675 -0.0216666665 0
0.0133333337 -0.0216666665 0
0.00999999978 -0.0216666665 0
0.00666666683 -0.0216666665 0
0.00333333341 -0.0216666665 0
0.0 -0.0216666665 0
0.100000001 -0.0250000004 0
0.0966666639 -0.0250000004 0
0.0933333337 -0.0250000004 0
0.0900000036 -0.0250000004 0
0.086666666 -0.0250000004 0
0.0833333358 -0.0250000004 0
0.0799999982 -0.0250000004 0
0.0766666681 -0.0250000004 0
0.0733333305 -0.0250000004 0
0.0700000003 -0.0250000004 0
0.0666666701 -0.0250000004 0
0.0633333325 -0.0250000004 0
0.0599999987 -0.0250000004 0
0.0566666685 -0.0250000004 0
0.0533333346 -0.0250000004 0
0.0500000007 -0.0250000004 0
0.0466666669 -0.0250000004 0
0.043333333 -0.0250000004 0
0.0399999991 -0.0250000004 0
0.0366666652 -0.0250000004 0
0.0333333351 -0.0250000004 0
0.0299999993 -0.0250000004 0
0.0266666673 -0.0250000004 0
0.0233333334 -0.0250000004 0
0.0199999996 -0.0250000004 0
0.0166666675 -0.0250000004 0
0.0133333337 -0.0250000004 0
0.00999999978 -0.0250000004 0
0.00666666683 -0.0250000004 0
0.00333333341 -0.0250000004 0
0.0 -0.0250000004 0
0.100000001 -0.0283333343 0
0.0966666639 -0.0283333343 0
0.0933333337 -0.0283333343 0
0.0900000036 -0.0283333343 0
0.086666666 -0.0283333343 0
0.0833333358 -0.0283333343 0
0.0799999982 -0.0283333343 0
0.0766666681 -0.0283333343 0
0.0733333305 -0.0283333343 0
0.0700000003 -0.0283333343 0
0.0666666701 -0.0283333343 0
0.0633333325 -0.0283333343 0
0.0599999987 -0.0283333343 0
0.0566666685 -0.0283333343 0
0.0533333346 -0.0283333343 0
0.0500000007 -0.0283333343 0
0.0466666669 -0.0283333343 0
0.043333333 -0.0283333343 0
0.0399999991 -0.0283333343 0
0.0366666652 -0.0283333343 0
0.0333333351 -0.0283333343 0
0.0299999993 -0.0283333343 0
0.0266666673 -0.0283333343 0
0.0233333334 -0.0283333343 0
0.0199999996 -0.0283333343 0
0.0166666675 -0.0283333343 0
0.0133333337 -0.0283333343 0
0.00999999978 -0.0283333343 0
0.00666666683 -0.0283333343 0
0.00333333341 -0.0283333343 0
0.0 -0.0283333343 0
[...]
POINT_DATA 961
SCALARS Temp float 1
LOOKUP_TABLE default
213.15278675971012
182.73181848074123
167.48503831939206
161.26749440284544
159.11741928496
158.46023408980577
158.27685815806745
158.22908052816615
158.2172732307589
158.21447468182635
158.21383336719822
158.21369042441614
158.21365929470824
158.21365264945038
158.21365126553303
158.21365103570363
158.21365126553292
158.21365264945004
158.21365929472378
158.21369042449305
158.213833366809
158.2144746824248
158.21727323697175
158.22908052612954
158.2768582563025
158.46023386293217
159.1174197833875
161.26749187643358
167.4850398101528
182.73184299828512
213.1527871331453
182.73184412183772
151.36684070657054
135.63805301729815
129.21970486065237
126.99878724285838
126.31957803615619
126.12997003220161
126.08054973976922
126.06833253162962
126.06543602270581
126.06477210011239
126.06462408711148
126.06459184723457
126.06458496385048
126.06458353013271
126.06458329200764
126.06458353013261
126.06458496385011
126.06459184725063
126.064624087191
126.06477209970946
126.06543602332533
126.06833253805884
126.08054973766221
126.12997013378921
126.31957780163428
126.99878775781809
129.21970225185447
135.6380545555592
151.36686599077896
182.731844504217
167.48504007166764
135.6380279591104
119.64983911967084
113.11649192228421
110.85252595583829
110.15924407560843
109.96548772988184
109.91493694393122
109.90242977273097
109.8994623575224
109.89878174836281
109.89862992986592
109.89859684451022
109.8985897774413
109.89858830487914
109.89858806023139
109.89858830487907
109.89858977744085
109.89859684452675
109.89862992994746
109.8987817479497
109.89946235815717
109.9024297793144
109.91493694177503
109.96548783372836
110.15924383611254
110.85252648104684
113.11648926489632
119.64984068408201
135.63805364331836
167.48504045511777
161.26749144765552
129.21967476050983
113.1164869575966
106.52801131739922
104.2416920361289
103.54056321880877
103.34435307638392
103.29310067744778
103.28040632435248
103.27739161895313
103.2766995715671
103.27654508288917
103.2765113922364
103.27650419134133
103.27650269004799
103.27650244052325
103.27650269004786
103.27650419134092
103.27651139225323
103.2765450829722
103.27669957114679
103.27739161959825
103.28040633103647
103.29310067526042
103.34435318159066
103.54056297646474
104.2416925668157
106.52800863572728
113.1164885339272
129.2197006156678
161.26749183018472
159.11741937098517
126.99876021705353
110.85252418359168
104.24169527560434
101.94546596223525
101.24054407130498
101.04305442026933
100.99141234781483
100.97860848953295
100.97556490093532
100.97486561096996
100.97470937908679
100.9746752827804
100.97466799014177
100.97466646876492
100.97466621578376
100.97466646876485
100.97466799014137
100.97467528279746
100.97470937917083
100.97486561054524
100.97556490158688
100.97860849627679
100.9914123456095
101.04305452620258
101.24054382753366
101.94546649543956
104.24169258358933
110.85252576450684
126.99878613402326
159.1174197528845
158.46023352272192
126.31955031439843
110.15924161240049
103.5405657660274
101.2405433707427
100.53402998991493
100.33595454072832
100.28411988155054
100.27125829992319
100.26819864348924
100.26749513804191
100.2673378519351
100.2673035021368
100.26729615052474
100.2672946159226
100.26729436062637
100.26729461592255
100.26729615052439
100.26730350215395
100.26733785201972
100.26749513761455
100.2681986441442
100.27125830669908
100.28411987933585
100.33595464700433
100.53402974551743
101.24054390494862
103.54056307019601
110.1592431948491
126.31957625100183
158.46023390438452
158.27685781718534
126.12994253822835
109.96548550485583
103.34435586668744
101.04305396272046
100.33595478494847
100.13764332257392
100.08572416590825
100.07283527852593
100.06976751653254
100.06906176540636
100.06890389105085
100.06886939408311
100.06886200704228
100.06886046426038
100.06886020750255
100.06886046426037
100.06886200704193
100.06886939410036
100.0689038911358
100.06906176497749
100.06976751718958
100.07283528531744
100.08572416368939
100.13764342899282
100.3359545403088
101.04305449727713
103.34435316960818
109.96548708776496
126.12996848048964
158.27685819877834
158.22908009272044
126.08052214637878
109.91493461873736
103.29310336683898
100.9914117881756
100.28412002351763
100.08572406341837
100.03377190393238
100.02087143963412
100.017799980594
100.01709313828812
100.01693496213404
100.01690038604778
100.01689297917623
100.01689143165578
100.01689117403087
100.01689143165567
100.01689297917578
100.01690038606505
100.01693496221912
100.0170931378585
100.01779998125184
100.02087144643244
100.03377190171153
100.08572416989041
100.28411977879433
100.99141232284263
103.29310066938966
109.91493620177386
126.08054809015442
158.22908047429559
158.21727279801505
126.06830494062582
109.9024274503527
103.28040901676015
100.97860793280769
100.27125844487168
100.07283517899421
100.02087144261372
100.00796656593269
100.00489358296662
100.00418625805358
100.0040279399181
100.00399332455737
100.0039859073725
100.00398435728808
100.00398409918083
100.00398435728788
100.00398590737204
100.00399332457467
100.00402794000318
100.0041862576237
100.00489358362475
100.00796657273358
100.02087144039217
100.0728352854839
100.2712582001221
100.97860846750662
103.28040631920898
109.90242903342228
126.06833088478417
158.21727317958604
158.21447424142013
126.06540842367353
109.89946002701168
103.277394303143
100.97556433588338
100.26819878008483
100.06976740861907
100.0177999751885
100.00489357457757
100.00182002215494
100.0011125029407
100.0009541236427
100.00091949031797
100.00091206816114
100.00091051678383
100.00091025842598
100.00091051678376
100.0009120681607
100.00091949033532
100.0009541237278
100.0011125025105
100.00182002281316
100.00489358137939
100.01779997296664
100.06976751511407
100.26819853532766
100.975564870591
103.27739160556548
109.89946161008952
126.06543436792437
158.21447462299005
158.21383292630364
126.06474450055147
109.8987794173307
103.27670225523612
100.97486504538303
100.26749527410301
100.06906165695372
100.01709313234421
100.00418624912548
100.00111250240182
100.00040491175432
100.00024650831885
100.00021186743025
100.00020444305517
100.00020289107154
100.00020263259191
100.00020289107141
100.00020444305461
100.00021186744752
100.00024650840396
100.00040491132421
100.00111250306009
100.00418625592759
100.01709313012215
100.06906176345032
100.26749502934378
100.97486558009281
103.27669955765222
109.8987810004104
126.0647704448239
158.21383330787353
158.21368998387888
126.06459648791525
109.8986275992124
103.27654776694561
100.97470881388941
100.26733798838903
100.06890378299173
100.01693495658466
100.00402793138471
100.00095412349886
100.00024650871393
100.00008809652482
100.00005345270193
100.0000460274115
100.00004447516385
100.00004421662923
100.00004447516373
100.00004602741097
100.00005345271924
100.00008809660994
100.00024650828378
100.00095412415709
100.00402793818682
100.01693495436261
100.06890388948871
100.26733774362921
100.97470934859967
103.27654506936008
109.89862918229257
126.06462243219252
158.2136903654487
158.2136588541274
126.06456424799205
109.8985945138103
103.27651407624619
100.97467471753531
100.26730363854288
100.06886928597578
100.01690038045012
100.00399331597579
100.00091949012597
100.00021186777715
100.00005345265375
100.0000188077792
100.00001138213905
100.00000982978467
100.00000957122693
100.00000982978459
100.00001138213857
100.0000188077965
100.0000534527389
100.00021186734693
100.0009194907842
100.00399332277792
100.01690037822812
100.06886939247285
100.26730339378294
100.9746752522458
103.27651137866036
109.8985960968906
126.06459019227044
158.21365923569718
158.21365220885698
126.06455736459466
109.89858744672796
103.27650687533749
100.97466742488288
100.26729628691697
100.06886189892106
100.01689297356474
100.00398589877689
100.00091206795511
100.00020444338797
100.00004602734921
100.00001138212501
100.00000395636117
100.00000240396676
100.00000214540003
100.00000240396662
100.00000395636063
100.00001138214235
100.00004602743437
100.00020444295777
100.00091206861337
100.00398590557903
100.01689297134267
100.06886200541817
100.26729604215697
100.97466795959336
103.27650417775168
109.89858902980829
126.06458330887324
158.21365259042685
158.21365082494063
126.06455593087797
109.89858597416702
103.27650537404536
100.97466590350714
100.26729475231603
100.0688603561403
100.01689142604545
100.00398434869358
100.00091051657898
100.00020289140552
100.00004447510281
100.00000982977177
100.0000024039679
100.00000085155985
100.0000005929899
100.00000085155979
100.00000240396739
100.00000982978916
100.00004447518788
100.00020289097536
100.00091051723722
100.00398435549579
100.0168914238234
100.0688604626373
100.26729450755606
100.97466643821772
103.27650267645949
109.89858755724732
126.06458187515662
158.21365120651046
158.21365059511157
126.0645556927533
109.89858572951961
103.27650512452105
100.97466565052646
100.26729449702005
100.06886009938285
100.01689116842087
100.00398409058678
100.00091025822141
100.00020263292626
100.00004421656851
100.00000957121443
100.00000214540144
100.00000059299022
100.00000033441954
100.00000059299019
100.00000214540104
100.00000957123173
100.00004421665363
100.000202632496
100.00091025887968
100.003984097389
100.01689116619883
100.06886020587989
100.2672942522601
100.9746661852369
103.27650242693512
109.89858731259993
126.06458163703198
158.2136509766815
158.21365082494088
126.06455593087827
109.89858597416728
103.27650537404561
100.97466590350747
100.26729475231637
100.06886035614053
100.01689142604572
100.00398434869386
100.00091051657914
100.00020289140582
100.00004447510307
100.00000982977208
100.00000240396811
100.00000085156003
100.00000059299009
100.00000085156003
100.00000240396773
100.00000982978938
100.00004447518806
100.00020289097557
100.00091051723744
100.00398435549606
100.01689142382365
100.06886046263762
100.26729450755636
100.97466643821795
103.27650267645969
109.89858755724764
126.06458187515696
158.21365120651078
158.21365220885804
126.06455736459579
109.89858744672908
103.27650687533868
100.974667424884
100.26729628691815
100.0688618989223
100.01689297356583
100.003985898778
100.00091206795622
100.00020444338917
100.0000460273504
100.00001138212613
100.0000039563622
100.00000240396778
100.0000021454011
100.0000024039677
100.00000395636187
100.00001138214343
100.0000460274354
100.0002044429589
100.00091206861451
100.00398590558018
100.01689297134382
100.06886200541943
100.26729604215814
100.9746679595945
103.27650417775283
109.89858902980944
126.06458330887443
158.2136525904279
158.2136588541321
126.06456424799693
109.89859451381538
103.27651407625127
100.97467471754054
100.26730363854821
100.06886928598115
100.01690038045547
100.00399331598116
100.00091949013131
100.00021186778244
100.00005345265913
100.00001880778449
100.00001138214438
100.00000982978996
100.0000095712322
100.00000982978993
100.00001138214394
100.00001880780185
100.00005345274424
100.00021186735226
100.00091949078958
100.00399332278326
100.01690037823344
100.06886939247819
100.26730339378827
100.97467525225105
103.27651137866552
109.89859609689574
126.06459019227543
158.21365923570204
158.21368998390312
126.06459648794034
109.89862759923821
103.27654776697185
100.97470881391601
100.26733798841583
100.06890378301868
100.01693495661165
100.0040279314118
100.00095412352587
100.00024650874106
100.00008809655186
100.00005345272895
100.00004602743851
100.00004447519088
100.00004421665624
100.00004447519082
100.00004602743807
100.00005345274639
100.00008809663709
100.00024650831085
100.0009541241842
100.00402793821398
100.01693495438968
100.06890388951565
100.26733774365609
100.97470934862636
103.27654506938651
109.89862918231849
126.06462243221779
158.2136903654731
158.2138329266009
126.06474450085919
109.8987794176463
103.2767022555571
100.97486504570755
100.26749527442959
100.06906165728142
100.01709313267241
100.00418624945395
100.00111250273041
100.00040491208298
100.00024650864754
100.00021186775882
100.00020444338377
100.00020289140008
100.00020263292045
100.00020289140005
100.00020444338331
100.00021186777616
100.00024650873267
100.00040491165284
100.00111250338873
100.004186256256
100.0170931304505
100.06906176377791
100.26749502967031
100.97486558041727
103.27669955797326
109.89878100072609
126.06477044513177
158.21383330817093
158.21447424111267
126.0654084233553
109.89946002668569
103.27739430281166
100.97556433554885
100.2681987797485
100.06976740828176
100.01779997485079
100.00489357423962
100.00182002181704
100.00111250260268
100.0009541233047
100.00091948998002
100.00091206782315
100.00091051644576
100.00091025808781
100.00091051644567
100.00091206782267
100.00091948999727
100.00095412338975
100.00111250217248
100.00182002247524
100.00489358104146
100.01779997262894
100.06976751477681
100.2681985349913
100.97556487025646
103.27739160523436
109.89946160976362
126.06543436760641
158.21447462268293
158.21727280330546
126.06830494610043
109.90242745595872
103.28040902245192
100.97860793855037
100.27125845064175
100.07283518477762
100.020871448403
100.00796657172425
100.004893588759
100.0041862638463
100.00402794571093
100.00399333035021
100.00398591316525
100.00398436308073
100.00398410497357
100.00398436308063
100.00398591316471
100.00399333036734
100.00402794579587
100.00418626341623
100.00489358941714
100.00796657852514
100.02087144618139
100.07283529126728
100.27125820589222
100.97860847324941
103.28040632490088
109.90242903902845
126.06833089025885
158.21727318487655
158.22908008726594
126.08052214073595
109.91493461296335
103.29310336098219
100.99141178227168
100.28412001758963
100.08572405747947
100.03377189798894
100.02087143368905
100.01779997464831
100.01709313234231
100.01693495618817
100.01690038010179
100.0168929732303
100.01689142570974
100.01689116808484
100.0168914257097
100.01689297322984
100.01690038011893
100.01693495627305
100.01709313191259
100.01779997530608
100.02087144048723
100.033771895768
100.08572416395141
100.28411977286636
100.99141231693878
103.293100663533
109.91493619600001
126.08054808451162
158.22908046884112
158.2768579318282
126.12994265678383
109.96548562604758
103.34435598946696
101.04305408634836
100.3359549089767
100.13764344676919
100.08572429016569
100.072835402804
100.06976764081708
100.0690618896925
100.06890401533761
100.06886951836991
100.0688621313292
100.06886058854712
100.06886033178934
100.06886058854711
100.06886213132877
100.0688695183871
100.06890401542245
100.0690618892636
100.06976764147389
100.07283540959541
100.0857242879466
100.13764355318808
100.33595466433712
101.04305462090515
103.34435329238794
109.96548720895679
126.12996859904497
158.2768583134212
158.46023364370703
126.31955043945521
110.15924174009079
103.54056589521186
101.24054350066481
100.53403012015355
100.3359546710857
100.28412001194759
100.27125843033234
100.26819877390167
100.26749526845543
100.26733798234876
100.26730363255037
100.26729628093838
100.26729474633635
100.26729449103996
100.2672947463363
100.26729628093803
100.26730363256759
100.26733798243335
100.26749526802793
100.26819877455671
100.27125843710817
100.28412000973289
100.33595477736174
100.53402987575609
101.24054403487087
103.5405631993806
110.15924332253951
126.31957637605869
158.46023402536974
159.11741873766277
126.99875956271006
110.85252351618698
104.24169460118996
101.94546528457842
101.24054339234623
101.04305374084971
100.99141166824872
100.97860780992414
100.9755642213149
100.97486493134646
100.97470869946262
100.97467460315602
100.97466731051732
100.97466578914052
100.97466553615935
100.97466578914042
100.97466731051689
100.97467460317306
100.97470869954655
100.97486493092163
100.9755642219663
100.97860781666783
100.99141166604329
101.04305384678305
101.24054314857493
101.94546581778273
104.2416919091749
110.85252509710224
126.99878547967992
159.1174191195623
161.26749360061527
129.21967698357548
113.11648922181588
106.52801360202936
104.24169432936247
103.54056551518025
103.34435537377072
103.29310297513372
103.28040862211998
103.27739391674173
103.27670186936075
103.2765473806841
103.27651369003163
103.27650648913661
103.27650498784327
103.27650473831856
103.27650498784323
103.27650648913617
103.27651369004838
103.27654738076707
103.27670186894042
103.27739391738672
103.2804086288039
103.2931029729461
103.34435547897743
103.54056527283625
104.2416948600492
106.52801092035729
113.11649079814633
129.21970283873344
161.26749398314448
167.48503683880205
135.63802462263507
119.64983572509449
113.11648850050666
110.85252252327162
110.15924063932853
109.96548429246228
109.91493350619157
109.90242633490732
109.89945891967783
109.89877831051317
109.89862649201513
109.89859340665919
109.89858633959015
109.89858486702798
109.89858462238031
109.89858486702803
109.89858633958978
109.89859340667563
109.89862649209665
109.8987783101
109.89945892031264
109.90242634149068
109.91493350403539
109.96548439630881
110.1592403998327
110.85252304848018
113.11648584311864
119.64983728950577
135.63805030684318
167.48503722225212
182.73186448021812
151.3668617019928
135.63807434576006
129.21972633179178
126.99880876569304
126.31959957543083
126.12999157621577
126.08057128505185
126.06835407723293
126.06545756838642
126.06479364581108
126.06464563281432
126.06461339293838
126.06460650955447
126.06460507583668
126.06460483771166
126.06460507583668
126.0646065095541
126.06461339295443
126.06464563289386
126.0647936454082
126.06545756900604
126.06835408366219
126.08057128294496
126.1299916778034
126.31959934090897
126.99880928065276
129.21972372299376
135.63807588402102
151.36688698620085
182.7318648625974
213.15278691809652
182.73181864201703
167.48503847958065
161.26749456171365
159.1174194432389
158.46023424790627
158.27685831612254
158.22908068621047
158.21727338880078
158.21447483986776
158.21383352523958
158.2136905824576
158.21365945274965
158.21365280749174
158.21365142357425
158.213651193745
158.21365142357425
158.2136528074915
158.2136594527651
158.21369058253433
158.21383352485034
158.2144748404662
158.21727339501373
158.2290806841739
158.2768584143577
158.46023402103268
159.11741994166647
161.26749203530173
167.48503997034143
182.731843159561
213.15278729153152
