# vtk DataFile Version 2.0
Unstructured Grid Example
ASCII
DATASET UNSTRUCTURED_GRID

POINTS 961 float
0.100000001 0.00499999989 0
0.0966666639 0.00499999989 0
0.0933333337 0.00499999989 0
0.0900000036 0.00499999989 0
0.086666666 0.00499999989 0
0.0833333358 0.00499999989 0
0.0799999982 0.00499999989 0
0.0766666681 0.00499999989 0
0.0733333305 0.00499999989 0
0.0700000003 0.00499999989 0
0.0666666701 0.00499999989 0
0.0633333325 0.00499999989 0
0.0599999987 0.00499999989 0
0.0566666685 0.00499999989 0
0.0533333346 0.00499999989 0
0.0500000007 0.00499999989 0
0.0466666669 0.00499999989 0
0.043333333 0.00499999989 0
0.0399999991 0.00499999989 0
0.0366666652 0.00499999989 0
0.0333333351 0.00499999989 0
0.0299999993 0.00499999989 0
0.0266666673 0.00499999989 0
0.0233333334 0.00499999989 0
0.0199999996 0.00499999989 0
0.0166666675 0.00499999989 0
0.0133333337 0.00499999989 0
0.00999999978 0.00499999989 0
0.00666666683 0.00499999989 0
0.00333333341 0.00499999989 0
0.0 0.00499999989 0
0.100000001 0.00166666671 0
0.0966666639 0.00166666671 0
0.0933333337 0.00166666671 0
0.0900000036 0.00166666671 0
0.086666666 0.00166666671 0
0.0833333358 0.00166666671 0
0.0799999982 0.00166666671 0
0.0766666681 0.00166666671 0
0.0733333305 0.00166666671 0
0.0700000003 0.00166666671 0
0.0666666701 0.00166666671 0
0.0633333325 0.00166666671 0
0.0599999987 0.00166666671 0
0.0566666685 0.00166666671 0
0.0533333346 0.00166666671 0
0.0500000007 0.00166666671 0
0.0466666669 0.00166666671 0
0.043333333 0.00166666671 0
0.0399999991 0.00166666671 0
0.0366666652 0.00166666671 0
0.0333333351 0.00166666671 0
0.0299999993 0.00166666671 0
0.0266666673 0.00166666671 0
0.0233333334 0.00166666671 0
0.0199999996 0.00166666671 0
0.0166666675 0.00166666671 0
0.0133333337 0.00166666671 0
0.00999999978 0.00166666671 0
0.00666666683 0.00166666671 0
0.00333333341 0.00166666671 0
0.0 0.00166666671 0
0.100000001 -0.00166666671 0
0.0966666639 -0.00166666671 0
0.0933333337 -0.00166666671 0
0.0900000036 -0.00166666671 0
0.086666666 -0.00166666671 0
0.0833333358 -0.00166666671 0
0.0799999982 -0.00166666671 0
0.0766666681 -0.00166666671 0
0.0733333305 -0.00166666671 0
0.0700000003 -0.00166666671 0
0.0666666701 -0.00166666671 0
0.0633333325 -0.00166666671 0
0.0599999987 -0.00166666671 0
0.0566666685 -0.00166666671 0
0.0533333346 -0.00166666671 0
0.0500000007 -0.00166666671 0
0.0466666669 -0.00166666671 0
0.043333333 -0.00166666671 0
0.0399999991 -0.00166666671 0
0.0366666652 -0.00166666671 0
0.0333333351 -0.00166666671 0
0.0299999993 -0.00166666671 0
0.0266666673 -0.00166666671 0
0.0233333334 -0.00166666671 0
0.0199999996 -0.00166666671 0
0.0166666675 -0.00166666671 0
0.0133333337 -0.00166666671 0
0.00999999978 -0.00166666671 0
0.00666666683 -0.00166666671 0
0.00333333341 -0.00166666671 0
0.0 -0.00166666671 0
0.100000001 -0.00499999989 0
0.0966666639 -0.00499999989 0
0.0933333337 -0.00499999989 0
0.0900000036 -0.00499999989 0
0.086666666 -0.00499999989 0
0.0833333358 -0.00499999989 0
0.0799999982 -0.00499999989 0
0.0766666681 -0.00499999989 0
0.0733333305 -0.00499999989 0
0.0700000003 -0.00499999989 0
0.0666666701 -0.00499999989 0
0.0633333325 -0.00499999989 0
0.0599999987 -0.00499999989 0
0.0566666685 -0.00499999989 0
0.0533333346 -0.00499999989 0
0.0500000007 -0.00499999989 0
0.0466666669 -0.00499999989 0
0.043333333 -0.00499999989 0
0.0399999991 -0.00499999989 0
0.0366666652 -0.00499999989 0
0.0333333351 -0.00499999989 0
0.0299999993 -0.00499999989 0
0.0266666673 -0.00499999989 0
0.0233333334 -0.00499999989 0
0.0199999996 -0.00499999989 0
0.0166666675 -0.00499999989 0
0.0133333337 -0.00499999989 0
0.00999999978 -0.00499999989 0
0.00666666683 -0.00499999989 0
0.00333333341 -0.00499999989 0
0.0 -0.00499999989 0
0.100000001 -0.00833333377 0
0.0966666639 -0.00833333377 0
0.0933333337 -0.00833333377 0
0.0900000036 -0.00833333377 0
0.086666666 -0.00833333377 0
0.0833333358 -0.00833333377 0
0.0799999982 -0.00833333377 0
0.0766666681 -0.00833333377 0
0.0733333305 -0.00833333377 0
0.0700000003 -0.00833333377 0
0.0666666701 -0.00833333377 0
0.0633333325 -0.00833333377 0
0.0599999987 -0.00833333377 0
0.0566666685 -0.00833333377 0
0.0533333346 -0.00833333377 0
0.0500000007 -0.00833333377 0
0.0466666669 -0.00833333377 0
0.043333333 -0.00833333377 0
0.0399999991 -0.00833333377 0
0.0366666652 -0.00833333377 0
0.0333333351 -0.00833333377 0
0.0299999993 -0.00833333377 0
0.0266666673 -0.00833333377 0
0.0233333334 -0.00833333377 0
0.0199999996 -0.00833333377 0
0.0166666675 -0.00833333377 0
0.0133333337 -0.00833333377 0
0.00999999978 -0.00833333377 0
0.00666666683 -0.00833333377 0
0.00333333341 -0.00833333377 0
0.0 -0.00833333377 0
0.100000001 -0.0116666667 0
0.0966666639 -0.0116666667 0
0.0933333337 -0.0116666667 0
0.0900000036 -0.0116666667 0
0.086666666 -0.0116666667 0
0.0833333358 -0.0116666667 0
0.0799999982 -0.0116666667 0
0.0766666681 -0.0116666667 0
0.0733333305 -0.0116666667 0
0.0700000003 -0.0116666667 0
0.0666666701 -0.0116666667 0
0.0633333325 -0.0116666667 0
0.0599999987 -0.0116666667 0
0.0566666685 -0.0116666667 0
0.0533333346 -0.0116666667 0
0.0500000007 -0.0116666667 0
0.0466666669 -0.0116666667 0
0.043333333 -0.0116666667 0
0.0399999991 -0.0116666667 0
0.0366666652 -0.0116666667 0
0.0333333351 -0.0116666667 0
0.0299999993 -0.0116666667 0
0.0266666673 -0.0116666667 0
0.0233333334 -0.0116666667 0
0.0199999996 -0.0116666667 0
0.0166666675 -0.0116666667 0
0.0133333337 -0.0116666667 0
0.00999999978 -0.0116666667 0
0.00666666683 -0.0116666667 0
0.00333333341 -0.0116666667 0
0.0 -0.0116666667 0
0.100000001 -0.0149999997 0
0.0966666639 -0.0149999997 0
0.0933333337 -0.0149999997 0
0.0900000036 -0.0149999997 0
0.086666666 -0.0149999997 0
0.0833333358 -0.0149999997 0
0.0799999982 -0.0149999997 0
0.0766666681 -0.0149999997 0
0.0733333305 -0.0149999997 0
0.0700000003 -0.0149999997 0
0.0666666701 -0.0149999997 0
0.0633333325 -0.0149999997 0
0.0599999987 -0.0149999997 0
0.0566666685 -0.0149999997 0
0.0533333346 -0.0149999997 0
0.0500000007 -0.0149999997 0
0.0466666669 -0.0149999997 0
0.043333333 -0.0149999997 0
0.0399999991 -0.0149999997 0
0.0366666652 -0.0149999997 0
0.0333333351 -0.0149999997 0
0.0299999993 -0.0149999997 0
0.0266666673 -0.0149999997 0
0.0233333334 -0.0149999997 0
0.0199999996 -0.0149999997 0
0.0166666675 -0.0149999997 0
0.0133333337 -0.0149999997 0
0.00999999978 -0.0149999997 0
0.00666666683 -0.0149999997 0
0.00333333341 -0.0149999997 0
0.0 -0.0149999997 0
0.100000001 -0.0183333326 0
0.0966666639 -0.0183333326 0
0.0933333337 -0.0183333326 0
0.0900000036 -0.0183333326 0
0.086666666 -0.0183333326 0
0.0833333358 -0.0183333326 0
0.0799999982 -0.0183333326 0
0.0766666681 -0.0183333326 0
0.0733333305 -0.0183333326 0
0.0700000003 -0.0183333326 0
0.0666666701 -0.0183333326 0
0.0633333325 -0.0183333326 0
0.0599999987 -0.0183333326 0
0.0566666685 -0.0183333326 0
0.0533333346 -0.0183333326 0
0.0500000007 -0.0183333326 0
0.0466666669 -0.0183333326 0
0.043333333 -0.0183333326 0
0.0399999991 -0.0183333326 0
0.0366666652 -0.0183333326 0
0.0333333351 -0.0183333326 0
0.0299999993 -0.0183333326 0
0.0266666673 -0.0183333326 0
0.0233333334 -0.0183333326 0
0.0199999996 -0.0183333326 0
0.0166666675 -0.0183333326 0
0.0133333337 -0.0183333326 0
0.00999999978 -0.0183333326 0
0.00666666683 -0.0183333326 0
0.00333333341 -0.0183333326 0
0.0 -0.0183333326 0
0.100000001 -0.0216666665 0
0.0966666639 -0.0216666665 0
0.0933333337 -0.0216666665 0
0.0900000036 -0.0216666665 0
0.086666666 -0.0216666665 0
0.0833333358 -0.0216666665 0
0.0799999982 -0.0216666665 0
0.0766666681 -0.0216666665 0
0.0733333305 -0.0216666665 0
0.0700000003 -0.0216666665 0
0.0666666701 -0.0216666665 0
0.0633333325 -0.0216666665 0
0.0599999987 -0.0216666665 0
0.0566666685 -0.0216666665 0
0.0533333346 -0.0216666665 0
0.0500000007 -0.0216666665 0
0.0466666669 -0.0216666665 0
0.043333333 -0.0216666665 0
0.0399999991 -0.0216666665 0
0.0366666652 -0.0216666665 0
0.0333333351 -0.0216666665 0
0.0299999993 -0.0216666665 0
0.0266666673 -0.0216666665 0
0.0233333334 -0.0216666665 0
0.0199999996 -0.0216666665 0
0.0166666675 -0.0216666665 0
0.0133333337 -0.0216666665 0
0.00999999978 -0.0216666665 0
0.00666666683 -0.0216666665 0
0.00333333341 -0.0216666665 0
0.0 -0.0216666665 0
0.100000001 -0.0250000004 0
0.0966666639 -0.0250000004 0
0.0933333337 -0.0250000004 0
0.0900000036 -0.0250000004 0
0.086666666 -0.0250000004 0
0.0833333358 -0.0250000004 0
0.0799999982 -0.0250000004 0
0.0766666681 -0.0250000004 0
0.0733333305 -0.0250000004 0
0.0700000003 -0.0250000004 0
0.0666666701 -0.0250000004 0
0.0633333325 -0.0250000004 0
0.0599999987 -0.0250000004 0
0.0566666685 -0.0250000004 0
0.0533333346 -0.0250000004 0
0.0500000007 -0.0250000004 0
0.0466666669 -0.0250000004 0
0.043333333 -0.0250000004 0
0.0399999991 -0.0250000004 0
0.0366666652 -0.0250000004 0
0.0333333351 -0.0250000004 0
0.0299999993 -0.0250000004 0
0.0266666673 -0.0250000004 0
0.0233333334 -0.0250000004 0
0.0199999996 -0.0250000004 0
0.0166666675 -0.0250000004 0
0.0133333337 -0.0250000004 0
0.00999999978 -0.0250000004 0
0.00666666683 -0.0250000004 0
0.00333333341 -0.0250000004 0
0.0 -0.0250000004 0
0.100000001 -0.0283333343 0
0.0966666639 -0.0283333343 0
0.0933333337 -0.0283333343 0
0.0900000036 -0.0283333343 0
0.086666666 -0.0283333343 0
0.0833333358 -0.0283333343 0
0.0799999982 -0.0283333343 0
0.0766666681 -0.0283333343 0
0.0733333305 -0.0283333343 0
0.0700000003 -0.0283333343 0
0.0666666701 -0.0283333343 0
0.0633333325 -0.0283333343 0
0.0599999987 -0.0283333343 0
0.0566666685 -0.0283333343 0
0.0533333346 -0.0283333343 0
0.0500000007 -0.0283333343 0
0.0466666669 -0.0283333343 0
0.043333333 -0.0283333343 0
0.0399999991 -0.0283333343 0
0.0366666652 -0.0283333343 0
0.0333333351 -0.0283333343 0
0.0299999993 -0.0283333343 0
0.0266666673 -0.0283333343 0
0.0233333334 -0.0283333343 0
0.0199999996 -0.0283333343 0
0.0166666675 -0.0283333343 0
0.0133333337 -0.0283333343 0
0.00999999978 -0.0283333343 0
0.00666666683 -0.0283333343 0
0.00333333341 -0.0283333343 0
0.0 -0.0283333343 0
[...]
POINT_DATA 961
SCALARS Temp float 1
LOOKUP_TABLE default
312.4512302135302
280.8501245169614
256.8729659940209
239.75666067736722
228.27907839103284
221.05212959913004
216.77635836234808
214.39584201640895
213.14602307121402
212.52565796558747
212.23371177970532
212.1030716337002
212.04734791354522
212.0247182681095
212.01622403175043
212.0140830798538
212.01622403112862
212.0247182662564
212.04734794877828
212.1030717225477
212.23371153993213
212.52565814560495
213.14602393570593
214.39584180069903
216.77636147459265
221.05212583683027
228.27908199213178
239.7566506642333
256.8729688474612
280.8501550500486
312.45122998680444
280.8501572020518
248.12356469734073
223.29177753086512
205.56474586086716
193.6770964856143
186.19154795693558
181.76251185411516
179.29650373945483
178.00170908151495
177.35897261001938
177.05647567067203
176.92110400414577
176.8633577224889
176.8399049865442
176.8311012192968
176.82888215604837
176.8311012186523
176.83990498462356
176.86335775900196
176.92110409621338
177.05647542222354
177.35897279653557
178.00170997714318
179.2965035159793
181.76251507801146
186.1915440598681
193.67710021545903
205.5647354902024
223.29178048605957
248.12359631829867
280.85015696728885
256.87297050878374
223.29174747190788
197.80964781299932
179.61659904798788
167.41496266945722
159.73059926346443
155.18319072262253
152.65082395782238
151.32093405608987
150.66064475662688
150.34982309488296
150.2106971160999
150.1513370308667
150.1272240104027
150.11817074858578
150.1158885288925
150.1181707479229
150.12722400842765
150.15133706840317
150.21069721072845
150.3498228395695
150.66064494825588
151.32093497606962
152.65082372828107
155.18319403294203
159.73059526249713
167.41496649805836
179.61658840399778
197.80965084571798
223.2917799197839
256.87297026799536
239.7566509313987
205.56470039890576
179.6165838016709
161.08834191916054
148.65982142833886
140.831018023148
136.1970869101234
133.6158942805427
132.26000008550238
131.58660993978154
131.2695288529494
131.1275589597742
131.0669674177058
131.0423469833986
131.03310078991504
131.0307695342885
131.03310078923803
131.04234698138168
131.06696745602568
131.12755905634776
131.26952859245378
131.58661013524056
132.2600010235799
133.61589404650093
136.19709028379785
140.83101394641753
148.65982532846982
161.08833107808644
179.61658689003676
205.5647334385201
239.75665068637863
228.27908237456506
193.67706481769466
167.41496195905236
148.6598364249057
136.076865737733
128.1490751216859
123.45539991131352
120.84021487499166
119.4660582488227
118.78338410219953
118.46182623983161
118.31780350973919
118.25631492147623
118.2313216121249
118.22193254032969
118.21956478862437
118.22193253964211
118.23132161007698
118.25631496036877
118.31780360772181
118.46182597561173
118.7833843003849
119.46605919965805
120.84021463778409
123.4554033288941
128.14907099279537
136.07686968670131
148.65982545002078
167.41496508498994
193.67709825530602
228.27908212676678
221.05212762251037
186.1915098465753
159.7305921782331
140.83102664687038
128.14906854940367
120.15733562113546
115.424723580002
112.78716896501265
111.40086980243076
110.71195632193071
110.38735675522628
110.2419238349108
110.17981229105821
110.15455731718149
110.14506705179325
110.14267329788909
110.14506705109815
110.15455731511173
110.17981233035029
110.24192393386554
110.38735648846115
110.71195652195838
111.40087076178634
112.78716872569625
115.42472702632051
120.15733145836971
128.1490725297806
140.83101558649201
159.7305953280201
186.19154353568106
221.05212737300775
216.77636175171114
181.76247914235202
155.18318932209525
136.19710139995945
123.45539920928907
115.42472953137276
110.6681680617136
108.01670202499405
106.6227623862162
105.92987454605479
105.60331300914227
105.45695891261052
105.39443530457517
105.36900514638441
105.35944640694672
105.35703493769063
105.35944640624652
105.36900514429986
105.39443534413287
105.4569590122031
105.60331274072438
105.92987474726316
106.62276335096068
108.01670178434784
110.66817152579515
115.42472534785358
123.45540320869723
136.19709028816266
155.18319248612232
181.76251298085037
216.77636150123092
214.39584253290087
179.2964679624431
152.65081948907113
133.61590568478312
120.84021100652342
112.78717174185006
108.01669881650851
105.35705370578037
103.95856332704385
103.2632759512054
102.93551320244983
102.78858708775704
102.72580397794928
102.70026198758987
102.69065901023596
102.68823600790908
102.69065900953238
102.70026198549579
102.72580401767512
102.78858718774792
102.9355129330123
103.26327615313147
103.95856429501623
105.35705346434032
108.01670229096366
112.78716754632862
120.84021501680633
133.61589454384364
152.6508226611063
179.29650188448034
214.39584228189568
213.14602442876102
178.00167412878133
151.3209304758583
132.26001241792662
119.46605529945344
111.40087351678191
106.62276011093189
103.95856426875177
102.55750635065016
101.86084511617733
101.53238408764363
101.38512027723027
101.3221815869941
101.2965715409483
101.2869412860048
101.28451111228992
101.28694128529908
101.29657153884833
101.3221816268213
101.38512037745751
101.53238381760842
101.86084531851733
102.55750732045504
103.95856402686283
106.62276359111748
111.40086931469938
119.46605931560542
132.26000126139456
151.32093365214314
178.00170809488276
213.14602417749092
212.52565827413338
177.35893654701925
150.6606400567469
131.58662114167842
118.7833799958493
110.71195887410022
105.92987109701632
103.26327571800749
101.8608439380513
101.16343604444
100.83458933332153
100.68713589518934
100.62410838053958
100.59845884956252
100.5888125425038
100.58637811036412
100.58881254179691
100.59845884745914
100.62410842042507
100.68713599555016
100.83458906295306
101.1634362470068
101.86084490884316
103.26327547587786
105.92987458020073
110.71195466862166
118.78338401499916
131.5866099772539
150.6606432351649
177.358970535099
212.5256580227375
212.23371184642787
177.05643934599925
150.34981813594413
131.26953979588205
118.46182186549521
110.38735903936197
105.60330928792683
102.93551269743051
101.53238263658773
100.83458906067362
100.50553973302532
100.3579849299315
100.2949090957461
100.26923771609393
100.25958239232739
100.257145545276
100.25958239161979
100.26923771398862
100.29490913566347
100.35798503036422
100.5055394624803
100.83458926335857
101.53238360788478
102.93551245517827
105.60331277260111
110.38735483221544
118.46182588609777
131.26952862766828
150.3498213153774
177.05647334447332
212.23371159497563
212.10307195036987
176.92106793347529
150.210692422611
131.12757017599108
118.31779941016998
110.24192639764516
105.45695547056116
102.78858686362754
101.38511910744464
100.68713590446347
100.35798521212969
100.21037878023597
100.14727788372213
100.12159496872
100.11193480948845
100.10949665452561
100.1119348087804
100.12159496661361
100.14727792365628
100.21037888070566
100.3579849414954
100.68713610720708
101.38512007898784
102.78858662131597
105.45695895593936
110.24192218971952
118.31780343144189
131.12755900604762
150.2106956025039
176.921101936624
212.1030716988937
212.04734819290536
176.86332161101944
150.15133229734178
131.0669785941273
118.25631078047482
110.17981481247419
105.39443182042321
102.72580371184837
101.32218037502535
100.62410834771642
100.29490933586139
100.1472778415789
100.08416455193498
100.05847582870982
100.04881319574962
100.04637436496382
100.04881319504143
100.05847582660287
100.08416459187745
100.14727794206661
100.29490906518403
100.62410855048766
101.32218134668273
102.72580346950939
105.39443530611823
110.17981060420185
118.25631480204068
131.06696742343127
150.15133547743312
176.86335561617193
212.04734794141945
212.02471851645785
176.83986884206334
150.12721924371132
131.04235812639538
118.23131743675464
110.15455980408942
105.3690016272647
102.70026168649594
101.29657029384366
100.59845878161204
100.26923792107227
100.1215948914036
100.05847579353205
100.03278429963885
100.02312046823617
100.02068130684995
100.0231204675279
100.03278429753166
100.05847583347851
100.12159499189971
100.2692376503754
100.59845898439575
101.29657126555135
102.70026144414493
105.36900511309518
110.15455559567049
118.23132145844322
131.0423469553879
150.12722242388412
176.8399028480335
212.02471826496839
212.01622428427396
176.83106507881413
150.118165986296
131.0331119375724
118.22192836952176
110.14506954339525
105.35944289246612
102.6906587138511
101.28694004360085
100.58881247928595
100.25958260205041
100.11193473691002
100.04881316531235
100.0231204729787
100.01345611616264
100.01101680861885
100.01345611545432
100.0231204708714
100.04881320526052
100.11193483740969
100.25958233134537
100.58881268207479
101.28694101532875
102.69065847149525
105.35944637834989
110.14506533491922
118.22193239125757
131.03310076644607
150.11816916649977
176.83109908509252
212.01622403278307
212.01408333537998
176.82884601859482
150.11588376979157
131.03078068524536
118.21956062112422
110.14267579285658
105.35703142657775
102.68823571492045
101.28450987328682
100.58637805055938
100.25714575841772
100.10949658536528
100.04637433794589
100.0206813150126
100.0110168120392
100.00857746362762
100.01101681133093
100.02068131290538
100.04637437789442
100.10949668586593
100.25714548771045
100.5863782533495
101.28451084502008
102.6882354725633
105.35703491247523
110.1426715843658
118.21956464287211
131.03076951408877
150.11588695000324
176.82888002495127
212.01408308388895
212.0162242858573
176.8310650804554
150.11816598798384
131.03311193929628
118.22192837127224
110.14506954516482
105.35944289424849
102.6906587156417
101.28694004539656
100.5888124810846
100.25958260385077
100.11193473871126
100.0488131671141
100.02312047478063
100.01345611796465
100.01101681042091
100.01345611725638
100.02312047267337
100.04881320706217
100.11193483921085
100.25958233314572
100.58881268387334
101.28694101712443
102.69065847328588
105.35944638013218
110.14506533668867
118.22193239300812
131.03310076817
150.11816916818768
176.83109908673399
212.01622403436684
212.02471852069223
176.83986884645176
150.1272192482236
131.04235813100294
118.23131744143254
110.1545598088168
105.36900163202527
102.70026169127777
101.29657029863849
100.59845878641447
100.26923792587887
100.12159489621243
100.05847579834202
100.03278430444931
100.02312047304687
100.02068131166072
100.0231204723386
100.03278430234228
100.05847583828842
100.1215949967085
100.26923765518201
100.59845898919804
101.29657127034609
102.7002614489267
105.36900511785578
110.1545556003978
118.2313214631211
131.04234695999563
150.12722242839655
176.83990285242217
212.024718269203
212.04734820344433
176.86332162194137
150.15133230856964
131.06697860558913
118.2563107921077
110.17981482422616
105.39443183225424
102.72580372372943
101.32218038693657
100.62410835964492
100.29490934779923
100.14727785352171
100.08416456388025
100.05847584065619
100.04881320769655
100.04637437691082
100.04881320698837
100.05847583854936
100.08416460382276
100.14727795400948
100.29490907712187
100.62410856241615
101.32218135859375
102.7258034813904
105.39443531794927
110.17981061595378
118.25631481367364
131.06696743489326
150.15133548866118
176.86335562709417
212.04734795195887
212.10307197799895
176.92106796210572
150.21069245203745
131.12757020602206
118.31779944063864
110.24192642841548
105.45695550152949
102.7885868947193
101.38511913860962
100.68713593566972
100.35798524335817
100.21037881147589
100.14727791496752
100.12159499996802
100.11193484073745
100.10949668577493
100.1119348400295
100.1215949978616
100.14727795490174
100.2103789119456
100.35798497272394
100.68713613841328
101.38512011015264
102.78858665240762
105.45695898690754
110.2419222204899
118.31780346191069
131.12755903607885
150.21069563193072
176.92110196525482
212.1030717265233
212.23371202147695
177.05643952738
150.3498183223325
131.2695399860471
118.4618220583717
110.38735923408906
105.60330948385398
102.93551289409655
101.53238283368619
100.83458925801247
100.50553993049157
100.35798512746183
100.29490929330721
100.26923791366926
100.2595825899084
100.25714574285861
100.25958258920078
100.26923791156382
100.29490933322462
100.35798522789462
100.50553965994642
100.83458946069746
101.53238380498335
102.93551265184436
105.60331296852816
110.38735502694254
118.46182607897434
131.2695288178337
150.3498215017662
177.05647352585464
212.23371177002528
212.52565816998106
177.358936439105
150.6606399458686
131.58662102857568
118.78337988115909
110.71195875833435
105.9298709805588
103.26327560112797
101.86084382092729
101.16343592718165
100.83458921599279
100.68713577782546
100.6241082631592
100.5984587321746
100.58881242511272
100.58637799297217
100.58881242440575
100.59845873007114
100.62410830304454
100.68713587818627
100.83458894562423
101.16343612974845
101.86084479171929
103.26327535899834
105.9298744637433
110.7119545528559
118.78338390030915
131.58660986415137
150.66064312428693
177.3589704271852
212.52565791858586
213.1460251794528
178.00167490651282
151.3209312747409
132.26001323253243
119.46605612514634
111.40087434988192
106.62276094871855
103.95856510934694
102.55750719284056
101.86084595922739
101.53238493113385
101.38512112093497
101.3221824307983
101.29657238479633
101.28694212987052
101.28451195616032
101.28694212916486
101.29657238269625
101.3221824706254
101.38512122116205
101.53238466109843
101.86084616156738
102.55750816264545
103.95856486745804
106.62276442890413
111.40087014779952
119.46606014129851
132.2600020760008
151.32093445102615
178.00170887261459
213.14602492818324
214.39584209485258
179.29646750863927
152.65081902298942
133.6159052096201
120.84021052499686
112.7871712561035
108.01669832811453
105.3570532158149
103.95856283619509
103.26327545988576
102.9355127108918
102.78858659608433
102.72580348622392
102.70026149584159
102.69065851847844
102.68823551614905
102.6906585177748
102.70026149374728
102.72580352594954
102.788586696075
102.93551244145412
103.26327566181168
103.95856380416728
105.35705297437482
108.01670180256973
112.78716706058212
120.84021453527998
133.61589406868114
152.6508221950251
179.29650143067693
214.39584184384768
216.7763654163502
181.7624829384659
155.18319321998675
136.19710537247298
123.45540323352688
115.42473358947313
110.66817214074976
108.0167061162602
106.62276648424024
105.92987864761672
105.60331711246197
105.45696301676129
105.39443940910016
105.36900925106937
105.35945051169453
105.3570390424548
105.35945051099431
105.36900924898485
105.39443944865764
105.45696311635362
105.60331684404396
105.92987884882477
106.62276744898445
108.01670587561385
110.66817560483133
115.42472940595421
123.45540723293524
136.19709426067664
155.18319638401417
181.76251677696436
216.77636516587063
221.0521291902889
186.1915114704752
159.73059384532456
140.83102834538428
128.14907026948967
120.15733735518566
115.42472532257602
112.78717071249736
111.40087155258892
110.7119580734671
110.38735850743696
110.24192558743519
110.17981404372155
110.1545590699034
110.14506880453797
110.14267505063964
110.1450688038428
110.15455906783376
110.1798140830136
110.24192568638979
110.38735824067172
110.71195827349455
111.40087251194434
112.78717047318081
115.42472876889472
120.15733319242008
128.14907424986686
140.83101728500628
159.73059699511182
186.1915451595813
221.05212894078673
228.27907741145304
193.67705967710333
167.41495668224465
148.65983104935947
136.07686029470887
128.14906963521727
123.45539439848885
120.84020934708691
119.46605271276823
118.78337856197626
118.46182069758562
118.31779796655991
118.25630937788662
118.23131606836364
118.22192699650232
118.21955924478016
118.22192699581494
118.2313160663158
118.25630941677915
118.31779806454244
118.46182043336562
118.78337876016157
119.46605366360336
120.8402091098793
123.45539781606938
128.1490655063269
136.07686424367745
148.65982007447477
167.4149598081825
193.6770931147151
228.27907716365505
239.75665889787052
205.56470864980813
179.6165922699702
161.08835054417438
148.65983015972049
140.8310268224647
136.1970957502825
133.61590314384105
132.26000896117614
131.5866188217172
131.26953773789003
131.12756784608618
131.0669763046143
131.04235587055393
131.03310967716462
131.03077842156222
131.03310967648767
131.04235586853716
131.06697634293414
131.12756794265988
131.26953747739455
131.5866190171763
132.2600098992538
133.61590290979925
136.1970991239569
140.83102274573426
148.6598340598515
161.08833970310033
179.6165953583361
205.5647416894225
239.7566586528507
256.87296318719547
223.29173988920886
197.8096400313246
179.61659112345023
167.4149546484336
159.7305911811762
155.1831826037447
152.6508158183639
151.32092590570846
150.66063660076264
150.34981493640893
150.21068895644473
150.1513288707019
150.12721585002853
150.11816258813244
150.11588036841928
150.11816258746975
150.12721584805382
150.15132890823847
150.2106890510733
150.34981468109564
150.66063679239195
151.32092682568842
152.6508155888228
155.1831859140643
159.730587180209
167.4149584770347
179.61658047946014
197.80964306404343
223.29177233708543
256.8729629464069
280.850182748841
248.12359115433435
223.29180467970798
205.56477350477567
193.67712446248404
186.1915761441915
181.76254016633663
179.29653212155108
178.00173750046517
177.3590010473501
177.056504116695
176.92113245407748
176.86338617409606
176.839933438835
176.83112967184536
176.82891060866217
176.83112967120096
176.83993343691458
176.8633862106093
176.92113254614532
177.0565038682467
177.35900123386654
178.00173839609366
179.2965318980758
181.76254339023296
186.19157224712416
193.6771281923288
205.564763134111
223.29180763490245
248.12362277529144
280.8501825140782
312.45123008685937
280.8501243858035
256.8729658595056
239.75666054049998
228.27907825262653
221.05212945978292
216.77635822246344
214.39584187623655
213.1460229308974
212.52565782520261
212.23371163929042
212.1030714932726
212.0473477731124
212.02471812767465
212.01622389131495
212.01408293941822
212.0162238906932
212.0247181258218
212.0473478083455
212.10307158211972
212.23371139951712
212.52565800522055
213.14602379538957
214.39584166052694
216.77636133470807
221.05212569748312
228.2790818537256
239.75665052736628
256.8729687129458
280.8501549188909
312.45122986013365
