# vtk DataFile Version 2.0
Unstructured Grid Example
ASCII
DATASET UNSTRUCTURED_GRID

POINTS 961 float
0.150000006 -0.00839745998 0
0.146666661 -0.00839745998 0
0.143333331 -0.00839745998 0
0.140000001 -0.00839745998 0
0.13666667 -0.00839745998 0
0.13333334 -0.00839745998 0
0.129999995 -0.00839745998 0
0.126666665 -0.00839745998 0
0.123333335 -0.00839745998 0
0.119999997 -0.00839745998 0
0.116666667 -0.00839745998 0
0.113333337 -0.00839745998 0
0.109999999 -0.00839745998 0
0.106666669 -0.00839745998 0
0.103333332 -0.00839745998 0
0.100000001 -0.00839745998 0
0.0966666639 -0.00839745998 0
0.0933333337 -0.00839745998 0
0.0900000036 -0.00839745998 0
0.086666666 -0.00839745998 0
0.0833333358 -0.00839745998 0
0.0799999982 -0.00839745998 0
0.0766666681 -0.00839745998 0
0.0733333305 -0.00839745998 0
0.0700000003 -0.00839745998 0
0.0666666701 -0.00839745998 0
0.0633333325 -0.00839745998 0
0.0599999987 -0.00839745998 0
0.0566666685 -0.00839745998 0
0.0533333346 -0.00839745998 0
0.0500000007 -0.00839745998 0
0.148333326 -0.0112842107 0
0.144999996 -0.0112842107 0
0.141666666 -0.0112842107 0
0.138333336 -0.0112842107 0
0.135000005 -0.0112842107 0
0.13166666 -0.0112842107 0
0.12833333 -0.0112842107 0
0.125 -0.0112842107 0
0.12166667 -0.0112842107 0
0.118333332 -0.0112842107 0
0.115000002 -0.0112842107 0
0.111666664 -0.0112842107 0
0.108333334 -0.0112842107 0
0.104999997 -0.0112842107 0
0.101666667 -0.0112842107 0
0.0983333364 -0.0112842107 0
0.0949999988 -0.0112842107 0
0.0916666687 -0.0112842107 0
0.088333331 -0.0112842107 0
0.0850000009 -0.0112842107 0
0.0816666633 -0.0112842107 0
0.0783333331 -0.0112842107 0
0.075000003 -0.0112842107 0
0.0716666654 -0.0112842107 0
0.0683333352 -0.0112842107 0
0.0649999976 -0.0112842107 0
0.0616666675 -0.0112842107 0
0.0583333336 -0.0112842107 0
0.0549999997 -0.0112842107 0
0.0516666658 -0.0112842107 0
0.0483333319 -0.0112842107 0
0.146666661 -0.0141709624 0
0.143333331 -0.0141709624 0
0.140000001 -0.0141709624 0
0.13666667 -0.0141709624 0
0.13333334 -0.0141709624 0
0.129999995 -0.0141709624 0
0.126666665 -0.0141709624 0
0.123333335 -0.0141709624 0
0.119999997 -0.0141709624 0
0.116666667 -0.0141709624 0
0.113333337 -0.0141709624 0
0.109999999 -0.0141709624 0
0.106666669 -0.0141709624 0
0.103333332 -0.0141709624 0
0.100000001 -0.0141709624 0
0.0966666639 -0.0141709624 0
0.0933333337 -0.0141709624 0
0.0900000036 -0.0141709624 0
0.086666666 -0.0141709624 0
0.0833333358 -0.0141709624 0
0.0799999982 -0.0141709624 0
0.0766666681 -0.0141709624 0
0.0733333305 -0.0141709624 0
0.0700000003 -0.0141709624 0
0.0666666701 -0.0141709624 0
0.0633333325 -0.0141709624 0
0.0599999987 -0.0141709624 0
0.0566666685 -0.0141709624 0
0.0533333346 -0.0141709624 0
0.0500000007 -0.0141709624 0
0.0466666669 -0.0141709624 0
0.144999996 -0.0170577131 0
0.141666666 -0.0170577131 0
0.138333336 -0.0170577131 0
0.135000005 -0.0170577131 0
0.13166666 -0.0170577131 0
0.12833333 -0.0170577131 0
0.125 -0.0170577131 0
0.12166667 -0.0170577131 0
0.118333332 -0.0170577131 0
0.115000002 -0.0170577131 0
0.111666664 -0.0170577131 0
0.108333334 -0.0170577131 0
0.104999997 -0.0170577131 0
0.101666667 -0.0170577131 0
0.0983333364 -0.0170577131 0
0.0949999988 -0.0170577131 0
0.0916666687 -0.0170577131 0
0.088333331 -0.0170577131 0
0.0850000009 -0.0170577131 0
0.0816666633 -0.0170577131 0
0.0783333331 -0.0170577131 0
0.075000003 -0.0170577131 0
0.0716666654 -0.0170577131 0
0.0683333352 -0.0170577131 0
0.0649999976 -0.0170577131 0
0.0616666675 -0.0170577131 0
0.0583333336 -0.0170577131 0
0.0549999997 -0.0170577131 0
0.0516666658 -0.0170577131 0
0.0483333319 -0.0170577131 0
0.0450000018 -0.0170577131 0
0.143333331 -0.0199444648 0
0.140000001 -0.0199444648 0
0.13666667 -0.0199444648 0
0.13333334 -0.0199444648 0
0.129999995 -0.0199444648 0
0.126666665 -0.0199444648 0
0.123333335 -0.0199444648 0
0.119999997 -0.0199444648 0
0.116666667 -0.0199444648 0
0.113333337 -0.0199444648 0
0.109999999 -0.0199444648 0
0.106666669 -0.0199444648 0
0.103333332 -0.0199444648 0
0.100000001 -0.0199444648 0
0.0966666639 -0.0199444648 0
0.0933333337 -0.0199444648 0
0.0900000036 -0.0199444648 0
0.086666666 -0.0199444648 0
0.0833333358 -0.0199444648 0
0.0799999982 -0.0199444648 0
0.0766666681 -0.0199444648 0
0.0733333305 -0.0199444648 0
0.0700000003 -0.0199444648 0
0.0666666701 -0.0199444648 0
0.0633333325 -0.0199444648 0
0.0599999987 -0.0199444648 0
0.0566666685 -0.0199444648 0
0.0533333346 -0.0199444648 0
0.0500000007 -0.0199444648 0
0.0466666669 -0.0199444648 0
0.043333333 -0.0199444648 0
0.141666666 -0.0228312165 0
0.138333336 -0.0228312165 0
0.135000005 -0.0228312165 0
0.13166666 -0.0228312165 0
0.12833333 -0.0228312165 0
0.125 -0.0228312165 0
0.12166667 -0.0228312165 0
0.118333332 -0.0228312165 0
0.115000002 -0.0228312165 0
0.111666664 -0.0228312165 0
0.108333334 -0.0228312165 0
0.104999997 -0.0228312165 0
0.101666667 -0.0228312165 0
0.0983333364 -0.0228312165 0
0.0949999988 -0.0228312165 0
0.0916666687 -0.0228312165 0
0.088333331 -0.0228312165 0
0.0850000009 -0.0228312165 0
0.0816666633 -0.0228312165 0
0.0783333331 -0.0228312165 0
0.075000003 -0.0228312165 0
0.0716666654 -0.0228312165 0
0.0683333352 -0.0228312165 0
0.0649999976 -0.0228312165 0
0.0616666675 -0.0228312165 0
0.0583333336 -0.0228312165 0
0.0549999997 -0.0228312165 0
0.0516666658 -0.0228312165 0
0.0483333319 -0.0228312165 0
0.0450000018 -0.0228312165 0
0.0416666679 -0.0228312165 0
0.140000001 -0.0257179681 0
0.13666667 -0.0257179681 0
0.13333334 -0.0257179681 0
0.129999995 -0.0257179681 0
0.126666665 -0.0257179681 0
0.123333335 -0.0257179681 0
0.119999997 -0.0257179681 0
0.116666667 -0.0257179681 0
0.113333337 -0.0257179681 0
0.109999999 -0.0257179681 0
0.106666669 -0.0257179681 0
0.103333332 -0.0257179681 0
0.100000001 -0.0257179681 0
0.0966666639 -0.0257179681 0
0.0933333337 -0.0257179681 0
0.0900000036 -0.0257179681 0
0.086666666 -0.0257179681 0
0.0833333358 -0.0257179681 0
0.0799999982 -0.0257179681 0
0.0766666681 -0.0257179681 0
0.0733333305 -0.0257179681 0
0.0700000003 -0.0257179681 0
0.0666666701 -0.0257179681 0
0.0633333325 -0.0257179681 0
0.0599999987 -0.0257179681 0
0.0566666685 -0.0257179681 0
0.0533333346 -0.0257179681 0
0.0500000007 -0.0257179681 0
0.0466666669 -0.0257179681 0
0.043333333 -0.0257179681 0
0.0399999991 -0.0257179681 0
0.138333336 -0.0286047198 0
0.135000005 -0.0286047198 0
0.13166666 -0.0286047198 0
0.12833333 -0.0286047198 0
0.125 -0.0286047198 0
0.12166667 -0.0286047198 0
0.118333332 -0.0286047198 0
0.115000002 -0.0286047198 0
0.111666664 -0.0286047198 0
0.108333334 -0.0286047198 0
0.104999997 -0.0286047198 0
0.101666667 -0.0286047198 0
0.0983333364 -0.0286047198 0
0.0949999988 -0.0286047198 0
0.0916666687 -0.0286047198 0
0.088333331 -0.0286047198 0
0.0850000009 -0.0286047198 0
0.0816666633 -0.0286047198 0
0.0783333331 -0.0286047198 0
0.075000003 -0.0286047198 0
0.0716666654 -0.0286047198 0
0.0683333352 -0.0286047198 0
0.0649999976 -0.0286047198 0
0.0616666675 -0.0286047198 0
0.0583333336 -0.0286047198 0
0.0549999997 -0.0286047198 0
0.0516666658 -0.0286047198 0
0.0483333319 -0.0286047198 0
0.0450000018 -0.0286047198 0
0.0416666679 -0.0286047198 0
0.038333334 -0.0286047198 0
0.13666667 -0.0314914696 0
0.13333334 -0.0314914696 0
0.129999995 -0.0314914696 0
0.126666665 -0.0314914696 0
0.123333335 -0.0314914696 0
0.119999997 -0.0314914696 0
0.116666667 -0.0314914696 0
0.113333337 -0.0314914696 0
0.109999999 -0.0314914696 0
0.106666669 -0.0314914696 0
0.103333332 -0.0314914696 0
0.100000001 -0.0314914696 0
0.0966666639 -0.0314914696 0
0.0933333337 -0.0314914696 0
0.0900000036 -0.0314914696 0
0.086666666 -0.0314914696 0
0.0833333358 -0.0314914696 0
0.0799999982 -0.0314914696 0
0.0766666681 -0.0314914696 0
0.0733333305 -0.0314914696 0
0.0700000003 -0.0314914696 0
0.0666666701 -0.0314914696 0
0.0633333325 -0.0314914696 0
0.0599999987 -0.0314914696 0
0.0566666685 -0.0314914696 0
0.0533333346 -0.0314914696 0
0.0500000007 -0.0314914696 0
0.0466666669 -0.0314914696 0
0.043333333 -0.0314914696 0
0.0399999991 -0.0314914696 0
0.0366666652 -0.0314914696 0
0.135000005 -0.0343782231 0
0.13166666 -0.0343782231 0
0.12833333 -0.0343782231 0
0.125 -0.0343782231 0
0.12166667 -0.0343782231 0
0.118333332 -0.0343782231 0
0.115000002 -0.0343782231 0
0.111666664 -0.0343782231 0
0.108333334 -0.0343782231 0
0.104999997 -0.0343782231 0
0.101666667 -0.0343782231 0
0.0983333364 -0.0343782231 0
0.0949999988 -0.0343782231 0
0.0916666687 -0.0343782231 0
0.088333331 -0.0343782231 0
0.0850000009 -0.0343782231 0
0.0816666633 -0.0343782231 0
0.0783333331 -0.0343782231 0
0.075000003 -0.0343782231 0
0.0716666654 -0.0343782231 0
0.0683333352 -0.0343782231 0
0.0649999976 -0.0343782231 0
0.0616666675 -0.0343782231 0
0.0583333336 -0.0343782231 0
0.0549999997 -0.0343782231 0
0.0516666658 -0.0343782231 0
0.0483333319 -0.0343782231 0
0.0450000018 -0.0343782231 0
0.0416666679 -0.0343782231 0
0.038333334 -0.0343782231 0
0.0350000001 -0.0343782231 0
0.13333334 -0.0372649729 0
0.129999995 -0.0372649729 0
0.126666665 -0.0372649729 0
0.123333335 -0.0372649729 0
0.119999997 -0.0372649729 0
0.116666667 -0.0372649729 0
0.113333337 -0.0372649729 0
0.109999999 -0.0372649729 0
0.106666669 -0.0372649729 0
0.103333332 -0.0372649729 0
0.100000001 -0.0372649729 0
0.0966666639 -0.0372649729 0
0.0933333337 -0.0372649729 0
0.0900000036 -0.0372649729 0
0.086666666 -0.0372649729 0
0.0833333358 -0.0372649729 0
0.0799999982 -0.0372649729 0
0.0766666681 -0.0372649729 0
0.0733333305 -0.0372649729 0
0.0700000003 -0.0372649729 0
0.0666666701 -0.0372649729 0
0.0633333325 -0.0372649729 0
0.0599999987 -0.0372649729 0
0.0566666685 -0.0372649729 0
0.0533333346 -0.0372649729 0
0.0500000007 -0.0372649729 0
0.0466666669 -0.0372649729 0
0.043333333 -0.0372649729 0
0.0399999991 -0.0372649729 0
0.0366666652 -0.0372649729 0
0.0333333351 -0.0372649729 0
0.13166666 -0.0401517227 0
0.12833333 -0.0401517227 0
0.125 -0.0401517227 0
0.12166667 -0.0401517227 0
0.118333332 -0.0401517227 0
0.115000002 -0.0401517227 0
0.111666664 -0.0401517227 0
[...]
POINT_DATA 961
SCALARS Temp float 1
LOOKUP_TABLE default
207.23332193457705
166.6368039652007
148.49694167863612
142.40797165320197
140.59967994692795
140.09436905219712
139.9581945552633
139.92237368217587
139.9131203567923
139.9107621252816
139.91016511989747
139.91001958624756
139.90998295170562
139.90997363356402
139.90997369667883
139.90997005273152
139.90997003560028
139.90996787558498
139.9099706475798
139.90997065205798
139.90997106865075
139.9099751876823
139.9099840183343
139.91006164905545
139.91055763634472
139.91373061842722
139.93359763227994
140.05525497751879
140.7729995770981
144.7123763642403
161.39391962557033
166.63682033440216
132.48609983571885
119.934554797885
115.97212716514863
114.82416220980306
114.50716691564399
114.4223260606903
114.4001180665594
114.39440035609486
114.3929471042971
114.39258252256677
114.39249033696763
114.39246749665051
114.39246224900442
114.3924587368974
114.3924601892974
114.39246042334275
114.39246134677896
114.39246038776773
114.39246043442486
114.39246150061136
114.39246434579111
114.39249901913922
114.3927103287283
114.39404443939306
114.4023258980234
114.45251480651581
114.74466458187942
116.32885178995818
123.43565588553955
144.71238699954333
148.4969302640113
119.93455682500854
109.23525041647787
105.85121456753252
104.86361060131158
104.58913295350122
104.51529175444493
104.49588482040718
104.49087173678944
104.48959401198329
104.48927303614907
104.48919255808126
104.4891725808209
104.48916761236696
104.48916683216453
104.48916603543923
104.48916547667876
104.48916623588724
104.4891662017766
104.48916650060781
104.48916831049682
104.48918155642923
104.48926170644154
104.48976203484926
104.49281482053206
104.51087708262745
104.61308934584757
105.15061077300533
107.5856809654084
116.32884351654909
140.77299889110472
142.40796543491803
115.97213252366042
105.85121965064698
102.61236436606548
101.66140494850336
101.39605465655028
101.3244728189652
101.30562164675392
101.30074579317966
101.2995024886578
101.29918867126821
101.29911024514965
101.29909079382689
101.2990858111191
101.29908487630512
101.29908456131281
101.29908471759467
101.29908454870268
101.29908464035258
101.2990853192858
101.29908970239842
101.29911839456287
101.29929166627905
101.30032305437726
101.30625982386616
101.338843271599
101.50513074824148
102.256487727327
105.15061343537892
114.74467203212477
140.05525161983968
140.59968368590475
114.82416687769881
104.86361482850394
101.66140943330291
100.71882929250143
100.455430954701
100.38430837533755
100.36556632840252
100.3607166519177
100.35947945976515
100.35916732823449
100.35908930245094
100.35906994869445
100.3590652441912
100.35906401059643
100.35906369079558
100.35906369674949
100.359063710603
100.3590639430859
100.35906547748318
100.35907500005852
100.35913125746649
100.35945801416538
100.36128831028456
100.37104518707525
100.4195494952633
100.63734630768944
101.50512983824073
104.61308899484456
114.45251308478123
139.93360278447176
140.0943676753979
114.50717535841423
104.58913851241664
101.3960511482596
100.45542994386457
100.19245638001918
100.12142847704094
100.10270805801606
100.09786346057008
100.09662734722562
100.09631550277072
100.09623755543998
100.09621820941294
100.09621346237027
100.09621229278383
100.0962120306439
100.09621195906519
100.0962120208347
100.09621251369059
100.09621548992516
100.09623292694144
100.09633155422871
100.09686961107649
100.09966320382904
100.11324459562019
100.17380032574376
100.41954944064872
101.33884359946643
104.51087966400841
114.40231524269961
139.9137224110757
139.95818930291003
114.42233284900512
104.51530166062294
101.32446702200205
100.38430731165826
100.1214283838668
100.05042036011176
100.03170435890932
100.02686070711523
100.02562482772508
100.02531303935515
100.02523510478306
100.02521577855983
100.02521100947065
100.02520984029998
100.02520956476377
100.02520952050064
100.02520965801398
100.02521056179349
100.02521574610692
100.02524438723947
100.02539689172688
100.02617040137248
100.02986057453437
100.04620252376921
100.11324454582125
100.37104493533784
101.30625907504621
104.49281285366104
114.39404178938412
139.91056649012813
139.9223784883997
114.40012349023918
104.49586845955106
101.30561678651725
100.36556579621795
100.10270821887832
100.03170435046779
100.01298924341266
100.0081457634109
100.00690993173015
100.00659815324744
100.0065202201094
100.0065008905045
100.00649612668632
100.00649496202772
100.00649468399143
100.00649466114781
100.00649491136842
100.0064963977651
100.00650446528255
100.00654647041847
100.00675516351893
100.00773498715577
100.01204745090536
100.02986056281944
100.0996631981929
100.36128831782591
101.30032301252629
104.48975870013352
114.39269842480752
139.91005241145984
139.91311104905506
114.39441079269623
104.49085213930292
101.30074261902153
100.3607167183467
100.0978633985134
100.02686072334902
100.00814578461927
100.00330233586094
100.00206651425357
100.00175473714624
100.00167680561657
100.00165747455463
100.0016527109435
100.00165154612911
100.00165127488935
100.0016512820727
100.00165168330236
100.00165389507912
100.00166519944439
100.00172035780382
100.00197584206362
100.00309421652504
100.00773499384994
100.0261703935739
100.09686956685445
100.35945798162884
101.29929090237333
104.48926225727317
114.39250142147709
139.90999681489805
139.91075967949382
114.39289911332274
104.48958611103166
101.29950235920617
100.35948045935498
100.09662739416322
100.02562488370165
100.00690993602052
100.00206651369673
100.00083069127096
100.00051891550889
100.00044098369882
100.0004216530109
100.00041688993625
100.00041572622499
100.00041546280433
100.00041550820956
100.00041608725179
100.00041906919881
100.00043340621745
100.00049905400203
100.00078508309838
100.00197584044892
100.0067551599574
100.02539689355346
100.09633155635116
100.35913129026397
101.29911648528352
104.48917704898365
114.39245499048005
139.90996468521007
139.9102034612234
114.3925503864617
104.48927237957497
101.29919035211942
100.35916739130391
100.09631559781394
100.02531311165464
100.00659815153935
100.00175473874866
100.00051891534926
100.00020713999312
100.00012920805152
100.00010987752559
100.00010511476987
100.00010395311888
100.0001036991895
100.00010378750216
100.0001045471294
100.00010821931085
100.0001248852472
100.00019721291619
100.00049905440017
100.00172035844128
100.0065464676125
100.02524437677371
100.09623289715657
100.35907470438778
101.29908949022733
104.48916956552812
114.39246836173717
139.9099635674742
139.90999053799237
114.39248261124136
104.48919639385234
101.29911323461852
100.3590891342566
100.09623764219296
100.02523508545488
100.00652022002991
100.0016768019935
100.00044098370316
100.00012920821202
100.00005127620706
100.00003194584086
100.00002718357626
100.00002602427556
100.00002578056834
100.00002591064317
100.00002682577082
100.00003101097658
100.00004912819462
100.00012488546398
100.0004334065833
100.0016651984787
100.00650446977559
100.02521576143931
100.09621559672827
100.35906528070464
101.29908472721712
104.48916717622132
114.39246024933387
139.90998148858654
139.90998087831287
114.39247668852467
104.48918022344097
101.29909045825634
100.3590700471823
100.09621842745715
100.02521575440821
100.00650090082229
100.00165747209185
100.00042165341341
100.00010987742672
100.00003194579912
100.00001261564906
100.00000785406569
100.00000669728298
100.00000646322859
100.00000662810768
100.00000765552765
100.00001215431975
100.0000310109128
100.00010821926926
100.00041906967327
100.00165389234004
100.00649639597351
100.02521055595003
100.09621246016539
100.3590638728812
101.29908450387742
104.48916797452799
114.39244505197415
139.9099686956102
139.90996883012852
114.39246723102643
104.48917593488561
101.29908430961258
100.35906520167035
100.09621334154811
100.02521100243483
100.00649611999278
100.00165270970238
100.0004168906443
100.00010511457953
100.000027183555
100.00000785406165
100.00000309360723
100.00000193947048
100.00000171348091
100.00000190302173
100.00000299801695
100.0000076555208
100.0000268257881
100.00010454708422
100.000416087471
100.00165168297637
100.006494917071
100.02520968413725
100.0962119729476
100.35906354344034
101.29908398752389
104.48916500845561
114.39246290307965
139.909968974204
139.90997544771764
114.39247031467157
104.48916268819377
101.2990841275093
100.35906460709896
100.09621221971811
100.02520988526074
100.00649495695248
100.00165154572325
100.00041572610354
100.00010395306853
100.00002602429971
100.00000669727811
100.00000193947224
100.0000007887195
100.00000056915552
100.00000077379852
100.00000190301954
100.00000662809857
100.00002591061349
100.00010378752063
100.00041550803704
100.00165127989717
100.00649465998256
100.02520950608566
100.09621194010415
100.35906362711746
101.29908447915138
104.48916187801808
114.3924585578339
139.90996676610294
139.9099651598626
114.39246954939922
104.48915946325008
101.29908432504855
100.35906333496209
100.09621199946925
100.02520953690036
100.00649468311587
100.00165127599905
100.00041546243963
100.0001036991888
100.00002578051524
100.00000646322802
100.00000171347791
100.00000056915545
100.00000035575886
100.00000056915593
100.00000171347828
100.00000646323996
100.00002578053818
100.00010369912572
100.00041546314255
100.00165127479153
100.00649469087907
100.02520955019025
100.09621196820882
100.35906362321784
101.29908389934222
104.48916828507225
114.39245566838329
139.90997428056676
139.90997218531842
114.39244105295847
104.48916610449199
101.29908688579509
100.35906348125536
100.096212109527
100.0252094998056
100.00649466435173
100.00165127975066
100.00041550843912
100.00010378770571
100.00002591060398
100.00000662811885
100.00000190301975
100.00000077379896
100.00000056915631
100.00000078872033
100.00000193946826
100.00000669728195
100.00002602425579
100.00010395296816
100.00041572608612
100.00165154419084
100.00649495700418
100.02520983893031
100.096212290927
100.35906409202683
101.299083200549
104.48916596204951
114.39245179745603
139.90996598037404
139.90999012568022
114.39244857740248
104.48916927721514
101.29908331645755
100.35906361247316
100.09621188986382
100.02520964769452
100.00649492114525
100.00165168029075
100.00041608775928
100.00010454700099
100.00002682574217
100.00000765551955
100.0000029980152
100.00000190302255
100.0000017134816
100.00000193947072
100.00000309361037
100.00000785406755
100.00002718353701
100.0001051147375
100.00041689022883
100.00165271135369
100.00649612329006
100.02521099986839
100.09621344389488
100.35906502622208
101.29908606352599
104.48916533450382
114.3924571428011
139.90997311093656
139.90995314330775
114.39245851400808
104.48917295783976
101.29908263817917
100.35906404547796
100.09621233306181
100.02521055148823
100.00649639073383
100.00165389277323
100.00041907009978
100.0001082191506
100.00003101097197
100.00001215431516
100.00000765552552
100.0000066281068
100.00000646322812
100.0000066972826
100.00000785406935
100.00001261564243
100.00003194579251
100.00010987749074
100.00042165332535
100.00165747355378
100.00650089518838
100.02521579676566
100.09621833150892
100.359069768435
101.2990909411831
104.4891722377561
114.39246590063853
139.90998736174106
139.90997200998893
114.39246967166622
104.48916276978106
101.29908436427158
100.35906489765813
100.09621547016096
100.02521578241262
100.00650446063361
100.00166519983475
100.00043340630346
100.00012488529548
100.0000491281899
100.00003101096841
100.00002682577376
100.00002591065302
100.00002578056932
100.00002602427548
100.00002718357936
100.00003194583249
100.00005127624269
100.00012920809925
100.00044098413956
100.00167680295978
100.00652021893576
100.02523510074266
100.09623750770965
100.3590892797041
101.29910871884425
104.48918975560834
114.3924824439261
139.9100167782545
139.909967910731
114.39247225900596
104.48916115526453
101.29908985795807
100.35907430755655
100.09623290515307
100.02524436068559
100.00654646986088
100.00172036020619
100.00049905396652
100.00019721315772
100.00012488526322
100.00010821930488
100.00010454711395
100.00010378749388
100.00010369919302
100.00010395314415
100.00010511475959
100.00010987752889
100.00012920806937
100.00020713996466
100.00051891572986
100.0017547369671
100.0065981591593
100.02531306467
100.09631544028151
100.35916729722751
101.29918772358387
104.48927209084935
114.39258092720172
139.91016311087893
139.90995912975234
114.39243450842949
104.48917597675575
101.29911552852033
100.35913094085375
100.0963316479319
100.02539685990689
100.00675516540709
100.00197583954983
100.00078508251063
100.00049905395232
100.00043340615798
100.00041906920222
100.00041608741259
100.0004155082274
100.00041546279225
100.0004157262524
100.00041688988223
100.00042165301771
100.00044098367805
100.00051891566733
100.00083069140031
100.00206651259562
100.00690993548805
100.02562483219401
100.09662741283599
100.35947928545744
101.29950198996053
104.48959636324179
114.39295218838387
139.91077568425493
139.91001335969744
114.39249167086767
104.48926871522946
101.29929094769905
100.35945833420516
100.09686958444844
100.0261704255082
100.00773500911896
100.00309421942578
100.0019758465431
100.00172036171782
100.00166520276377
100.00165389816681
100.00165168650568
100.00165128545805
100.00165127859029
100.00165154929975
100.0016527143537
100.00165747794262
100.00167680881322
100.00175474065948
100.00206651662278
100.0033023389029
100.00814576753575
100.02686066575099
100.0978633630366
100.360716214907
101.300744225284
104.49086895343191
114.39438420918206
139.91310789796643
139.91005132869893
114.39271365980494
104.48975982607327
101.30032279573429
100.3612889017169
100.09966315704716
100.0298606150384
100.01204746633266
100.0077349994865
100.0067551761862
100.0065464830129
100.00650447850931
100.00649641359092
100.00649492503409
100.00649467429074
100.00649469763229
100.00649497454428
100.00649614002941
100.00650090398972
100.00652023430072
100.00659816626654
100.00690994460408
100.00814577557266
100.01298923837929
100.03170436995386
100.10270797060492
100.36556603815771
101.30562068268344
104.49588353516891
114.40011677659558
139.9223730607585
139.91055575283065
114.3940554484577
104.49281081650084
101.30625963066693
100.3710448516239
100.1132446433461
100.04620258457575
100.02986059616352
100.02617043031282
100.025396926119
100.0252444129066
100.0252157686572
100.0252105859802
100.02520968465738
100.0252095513963
100.02520958799651
100.02520986750729
100.02521103645952
100.02521580306876
100.02523513355973
100.02531306560184
100.02562485454368
100.0268607268588
100.03170438205251
100.05042042168279
100.12142843877524
100.38430824568674
101.3244727598351
104.51529111355211
114.42232475590504
139.9581904160173
139.91372504898732
114.40230548492232
104.51087531211518
101.33884467930197
100.41954907031138
100.17380041244078
100.11324460960914
100.09966320424863
100.09686960218751
100.09633154601322
100.09623292882712
100.09621553013403
100.09621252237106
100.09621202036926
100.096211965038
100.09621202321316
100.09621229769198
100.09621346889655
100.09621822509655
100.09623755527315
100.0963155108246
100.09662736124623
100.09786344928905
100.10270807559586
100.12142845619387
100.19245657267093
100.45543132654417
101.39605575818332
104.58913489638688
114.50716584866856
140.0943663381427
139.93360168116786
114.45249729518724
104.61308805473183
101.5051286080764
100.6373460724733
100.41954924368329
100.37104482111499
100.36128797127462
100.35945778463382
100.3591309155789
100.35907462833555
100.35906511748686
100.35906360721195
100.35906343191286
100.35906332065642
100.35906337615233
100.35906369028159
100.35906488786533
100.3590696446899
100.35908896853189
100.35916700033215
100.35947908943172
100.36071637339926
100.3655660251044
100.3843079957631
100.45543096833812
100.71883068151111
101.66140534073999
104.8636093555597
114.82416124888405
140.59969222009826
140.0552561189344
114.7446740223455
105.15062271512957
102.25648974583615
101.50513334806762
101.33884578772468
101.30626210383518
101.30032517706017
101.2992937721302
101.29912068208569
101.29909245467331
101.29908763068613
101.29908685183105
101.29908683032113
101.29908689043577
101.29908687626161
101.29908718471053
101.29908823780517
101.29909300371517
101.29911257697454
101.2991910686514
101.2995046187996
101.30074805850289
101.3056238871849
101.32447519646385
101.39605778975788
101.6614078636061
102.61236227275357
105.85120992858691
115.97211151704843
142.40796084911582
140.77300411142448
116.32886045876172
107.58568685234802
105.150617142105
104.61309568936585
104.51088270044826
104.49282057403444
104.48976898282015
104.48926766012927
104.489187372841
104.48917377756008
104.48917232233018
104.4891726694187
104.48917175749455
104.48917176705588
104.48917209592096
104.48917257746612
104.48917374857855
104.48917852832886
104.48919857859535
104.48927855089296
104.48960057223604
104.49087779776363
104.49589013659818
104.51529833009707
104.58913902941508
104.86361397522683
105.8512159600715
109.23524596033837
119.93454751380962
148.4969407879861
144.71238555801662
123.43567275076097
116.32885570776901
114.7446706419926
114.45252197849828
114.40233153184184
114.3940490558197
114.39271423434684
114.3925056177579
114.39247335550064
114.39246717058913
114.39246564328086
114.39246571754761
114.392466989653
114.39246623131434
114.39246612132798
114.39246553442815
114.39246715402163
114.39247377488098
114.39249668941314
114.39258754194817
114.39295234841018
114.3944062654729
114.40012525512876
114.42233477248558
114.5071718440465
114.8241634455791
115.97212894476833
119.934551464729
132.48610243210814
166.63680180984596
161.3939308883045
144.7123728084674
140.77300004581457
140.05525751601814
139.93359585027355
139.91373090214842
139.91056046539737
139.91006546952298
139.9099859158792
139.90997091486153
139.90997126025567
139.90997246105385
139.90997153243606
139.90997005326108
139.90997115782483
139.90997110063486
139.9099730359726
139.909975735155
139.90998359396127
139.9100188833037
139.9101678195466
139.91076381478618
139.91312176822197
139.92237519644482
139.95818910752016
140.09436711972555
140.59968441824068
142.40796825586528
148.49693466004697
166.6367904467162
207.2330822195661
