# vtk DataFile Version 2.0
Unstructured Grid Example
ASCII
DATASET UNSTRUCTURED_GRID

POINTS 961 float
0.150000006 -0.00839745998 0
0.146666661 -0.00839745998 0
0.143333331 -0.00839745998 0
0.140000001 -0.00839745998 0
0.13666667 -0.00839745998 0
0.13333334 -0.00839745998 0
0.129999995 -0.00839745998 0
0.126666665 -0.00839745998 0
0.123333335 -0.00839745998 0
0.119999997 -0.00839745998 0
0.116666667 -0.00839745998 0
0.113333337 -0.00839745998 0
0.109999999 -0.00839745998 0
0.106666669 -0.00839745998 0
0.103333332 -0.00839745998 0
0.100000001 -0.00839745998 0
0.0966666639 -0.00839745998 0
0.0933333337 -0.00839745998 0
0.0900000036 -0.00839745998 0
0.086666666 -0.00839745998 0
0.0833333358 -0.00839745998 0
0.0799999982 -0.00839745998 0
0.0766666681 -0.00839745998 0
0.0733333305 -0.00839745998 0
0.0700000003 -0.00839745998 0
0.0666666701 -0.00839745998 0
0.0633333325 -0.00839745998 0
0.0599999987 -0.00839745998 0
0.0566666685 -0.00839745998 0
0.0533333346 -0.00839745998 0
0.0500000007 -0.00839745998 0
0.148333326 -0.0112842107 0
0.144999996 -0.0112842107 0
0.141666666 -0.0112842107 0
0.138333336 -0.0112842107 0
0.135000005 -0.0112842107 0
0.13166666 -0.0112842107 0
0.12833333 -0.0112842107 0
0.125 -0.0112842107 0
0.12166667 -0.0112842107 0
0.118333332 -0.0112842107 0
0.115000002 -0.0112842107 0
0.111666664 -0.0112842107 0
0.108333334 -0.0112842107 0
0.104999997 -0.0112842107 0
0.101666667 -0.0112842107 0
0.0983333364 -0.0112842107 0
0.0949999988 -0.0112842107 0
0.0916666687 -0.0112842107 0
0.088333331 -0.0112842107 0
0.0850000009 -0.0112842107 0
0.0816666633 -0.0112842107 0
0.0783333331 -0.0112842107 0
0.075000003 -0.0112842107 0
0.0716666654 -0.0112842107 0
0.0683333352 -0.0112842107 0
0.0649999976 -0.0112842107 0
0.0616666675 -0.0112842107 0
0.0583333336 -0.0112842107 0
0.0549999997 -0.0112842107 0
0.0516666658 -0.0112842107 0
0.0483333319 -0.0112842107 0
0.146666661 -0.0141709624 0
0.143333331 -0.0141709624 0
0.140000001 -0.0141709624 0
0.13666667 -0.0141709624 0
0.13333334 -0.0141709624 0
0.129999995 -0.0141709624 0
0.126666665 -0.0141709624 0
0.123333335 -0.0141709624 0
0.119999997 -0.0141709624 0
0.116666667 -0.0141709624 0
0.113333337 -0.0141709624 0
0.109999999 -0.0141709624 0
0.106666669 -0.0141709624 0
0.103333332 -0.0141709624 0
0.100000001 -0.0141709624 0
0.0966666639 -0.0141709624 0
0.0933333337 -0.0141709624 0
0.0900000036 -0.0141709624 0
0.086666666 -0.0141709624 0
0.0833333358 -0.0141709624 0
0.0799999982 -0.0141709624 0
0.0766666681 -0.0141709624 0
0.0733333305 -0.0141709624 0
0.0700000003 -0.0141709624 0
0.0666666701 -0.0141709624 0
0.0633333325 -0.0141709624 0
0.0599999987 -0.0141709624 0
0.0566666685 -0.0141709624 0
0.0533333346 -0.0141709624 0
0.0500000007 -0.0141709624 0
0.0466666669 -0.0141709624 0
0.144999996 -0.0170577131 0
0.141666666 -0.0170577131 0
0.138333336 -0.0170577131 0
0.135000005 -0.0170577131 0
0.13166666 -0.0170577131 0
0.12833333 -0.0170577131 0
0.125 -0.0170577131 0
0.12166667 -0.0170577131 0
0.118333332 -0.0170577131 0
0.115000002 -0.0170577131 0
0.111666664 -0.0170577131 0
0.108333334 -0.0170577131 0
0.104999997 -0.0170577131 0
0.101666667 -0.0170577131 0
0.0983333364 -0.0170577131 0
0.0949999988 -0.0170577131 0
0.0916666687 -0.0170577131 0
0.088333331 -0.0170577131 0
0.0850000009 -0.0170577131 0
0.0816666633 -0.0170577131 0
0.0783333331 -0.0170577131 0
0.075000003 -0.0170577131 0
0.0716666654 -0.0170577131 0
0.0683333352 -0.0170577131 0
0.0649999976 -0.0170577131 0
0.0616666675 -0.0170577131 0
0.0583333336 -0.0170577131 0
0.0549999997 -0.0170577131 0
0.0516666658 -0.0170577131 0
0.0483333319 -0.0170577131 0
0.0450000018 -0.0170577131 0
0.143333331 -0.0199444648 0
0.140000001 -0.0199444648 0
0.13666667 -0.0199444648 0
0.13333334 -0.0199444648 0
0.129999995 -0.0199444648 0
0.126666665 -0.0199444648 0
0.123333335 -0.0199444648 0
0.119999997 -0.0199444648 0
0.116666667 -0.0199444648 0
0.113333337 -0.0199444648 0
0.109999999 -0.0199444648 0
0.106666669 -0.0199444648 0
0.103333332 -0.0199444648 0
0.100000001 -0.0199444648 0
0.0966666639 -0.0199444648 0
0.0933333337 -0.0199444648 0
0.0900000036 -0.0199444648 0
0.086666666 -0.0199444648 0
0.0833333358 -0.0199444648 0
0.0799999982 -0.0199444648 0
0.0766666681 -0.0199444648 0
0.0733333305 -0.0199444648 0
0.0700000003 -0.0199444648 0
0.0666666701 -0.0199444648 0
0.0633333325 -0.0199444648 0
0.0599999987 -0.0199444648 0
0.0566666685 -0.0199444648 0
0.0533333346 -0.0199444648 0
0.0500000007 -0.0199444648 0
0.0466666669 -0.0199444648 0
0.043333333 -0.0199444648 0
0.141666666 -0.0228312165 0
0.138333336 -0.0228312165 0
0.135000005 -0.0228312165 0
0.13166666 -0.0228312165 0
0.12833333 -0.0228312165 0
0.125 -0.0228312165 0
0.12166667 -0.0228312165 0
0.118333332 -0.0228312165 0
0.115000002 -0.0228312165 0
0.111666664 -0.0228312165 0
0.108333334 -0.0228312165 0
0.104999997 -0.0228312165 0
0.101666667 -0.0228312165 0
0.0983333364 -0.0228312165 0
0.0949999988 -0.0228312165 0
0.0916666687 -0.0228312165 0
0.088333331 -0.0228312165 0
0.0850000009 -0.0228312165 0
0.0816666633 -0.0228312165 0
0.0783333331 -0.0228312165 0
0.075000003 -0.0228312165 0
0.0716666654 -0.0228312165 0
0.0683333352 -0.0228312165 0
0.0649999976 -0.0228312165 0
0.0616666675 -0.0228312165 0
0.0583333336 -0.0228312165 0
0.0549999997 -0.0228312165 0
0.0516666658 -0.0228312165 0
0.0483333319 -0.0228312165 0
0.0450000018 -0.0228312165 0
0.0416666679 -0.0228312165 0
0.140000001 -0.0257179681 0
0.13666667 -0.0257179681 0
0.13333334 -0.0257179681 0
0.129999995 -0.0257179681 0
0.126666665 -0.0257179681 0
0.123333335 -0.0257179681 0
0.119999997 -0.0257179681 0
0.116666667 -0.0257179681 0
0.113333337 -0.0257179681 0
0.109999999 -0.0257179681 0
0.106666669 -0.0257179681 0
0.103333332 -0.0257179681 0
0.100000001 -0.0257179681 0
0.0966666639 -0.0257179681 0
0.0933333337 -0.0257179681 0
0.0900000036 -0.0257179681 0
0.086666666 -0.0257179681 0
0.0833333358 -0.0257179681 0
0.0799999982 -0.0257179681 0
0.0766666681 -0.0257179681 0
0.0733333305 -0.0257179681 0
0.0700000003 -0.0257179681 0
0.0666666701 -0.0257179681 0
0.0633333325 -0.0257179681 0
0.0599999987 -0.0257179681 0
0.0566666685 -0.0257179681 0
0.0533333346 -0.0257179681 0
0.0500000007 -0.0257179681 0
0.0466666669 -0.0257179681 0
0.043333333 -0.0257179681 0
0.0399999991 -0.0257179681 0
0.138333336 -0.0286047198 0
0.135000005 -0.0286047198 0
0.13166666 -0.0286047198 0
0.12833333 -0.0286047198 0
0.125 -0.0286047198 0
0.12166667 -0.0286047198 0
0.118333332 -0.0286047198 0
0.115000002 -0.0286047198 0
0.111666664 -0.0286047198 0
0.108333334 -0.0286047198 0
0.104999997 -0.0286047198 0
0.101666667 -0.0286047198 0
0.0983333364 -0.0286047198 0
0.0949999988 -0.0286047198 0
0.0916666687 -0.0286047198 0
0.088333331 -0.0286047198 0
0.0850000009 -0.0286047198 0
0.0816666633 -0.0286047198 0
0.0783333331 -0.0286047198 0
0.075000003 -0.0286047198 0
0.0716666654 -0.0286047198 0
0.0683333352 -0.0286047198 0
0.0649999976 -0.0286047198 0
0.0616666675 -0.0286047198 0
0.0583333336 -0.0286047198 0
0.0549999997 -0.0286047198 0
0.0516666658 -0.0286047198 0
0.0483333319 -0.0286047198 0
0.0450000018 -0.0286047198 0
0.0416666679 -0.0286047198 0
0.038333334 -0.0286047198 0
0.13666667 -0.0314914696 0
0.13333334 -0.0314914696 0
0.129999995 -0.0314914696 0
0.126666665 -0.0314914696 0
0.123333335 -0.0314914696 0
0.119999997 -0.0314914696 0
0.116666667 -0.0314914696 0
0.113333337 -0.0314914696 0
0.109999999 -0.0314914696 0
0.106666669 -0.0314914696 0
0.103333332 -0.0314914696 0
0.100000001 -0.0314914696 0
0.0966666639 -0.0314914696 0
0.0933333337 -0.0314914696 0
0.0900000036 -0.0314914696 0
0.086666666 -0.0314914696 0
0.0833333358 -0.0314914696 0
0.0799999982 -0.0314914696 0
0.0766666681 -0.0314914696 0
0.0733333305 -0.0314914696 0
0.0700000003 -0.0314914696 0
0.0666666701 -0.0314914696 0
0.0633333325 -0.0314914696 0
0.0599999987 -0.0314914696 0
0.0566666685 -0.0314914696 0
0.0533333346 -0.0314914696 0
0.0500000007 -0.0314914696 0
0.0466666669 -0.0314914696 0
0.043333333 -0.0314914696 0
0.0399999991 -0.0314914696 0
0.0366666652 -0.0314914696 0
0.135000005 -0.0343782231 0
0.13166666 -0.0343782231 0
0.12833333 -0.0343782231 0
0.125 -0.0343782231 0
0.12166667 -0.0343782231 0
0.118333332 -0.0343782231 0
0.115000002 -0.0343782231 0
0.111666664 -0.0343782231 0
0.108333334 -0.0343782231 0
0.104999997 -0.0343782231 0
0.101666667 -0.0343782231 0
0.0983333364 -0.0343782231 0
0.0949999988 -0.0343782231 0
0.0916666687 -0.0343782231 0
0.088333331 -0.0343782231 0
0.0850000009 -0.0343782231 0
0.0816666633 -0.0343782231 0
0.0783333331 -0.0343782231 0
0.075000003 -0.0343782231 0
0.0716666654 -0.0343782231 0
0.0683333352 -0.0343782231 0
0.0649999976 -0.0343782231 0
0.0616666675 -0.0343782231 0
0.0583333336 -0.0343782231 0
0.0549999997 -0.0343782231 0
0.0516666658 -0.0343782231 0
0.0483333319 -0.0343782231 0
0.0450000018 -0.0343782231 0
0.0416666679 -0.0343782231 0
0.038333334 -0.0343782231 0
0.0350000001 -0.0343782231 0
0.13333334 -0.0372649729 0
0.129999995 -0.0372649729 0
0.126666665 -0.0372649729 0
0.123333335 -0.0372649729 0
0.119999997 -0.0372649729 0
0.116666667 -0.0372649729 0
0.113333337 -0.0372649729 0
0.109999999 -0.0372649729 0
0.106666669 -0.0372649729 0
0.103333332 -0.0372649729 0
0.100000001 -0.0372649729 0
0.0966666639 -0.0372649729 0
0.0933333337 -0.0372649729 0
0.0900000036 -0.0372649729 0
0.086666666 -0.0372649729 0
0.0833333358 -0.0372649729 0
0.0799999982 -0.0372649729 0
0.0766666681 -0.0372649729 0
0.0733333305 -0.0372649729 0
0.0700000003 -0.0372649729 0
0.0666666701 -0.0372649729 0
0.0633333325 -0.0372649729 0
0.0599999987 -0.0372649729 0
0.0566666685 -0.0372649729 0
0.0533333346 -0.0372649729 0
0.0500000007 -0.0372649729 0
0.0466666669 -0.0372649729 0
0.043333333 -0.0372649729 0
0.0399999991 -0.0372649729 0
0.0366666652 -0.0372649729 0
0.0333333351 -0.0372649729 0
0.13166666 -0.0401517227 0
0.12833333 -0.0401517227 0
0.125 -0.0401517227 0
0.12166667 -0.0401517227 0
0.118333332 -0.0401517227 0
0.115000002 -0.0401517227 0
0.111666664 -0.0401517227 0
[...]
POINT_DATA 961
SCALARS Temp float 1
LOOKUP_TABLE default
398.7473970725243
349.8888819644187
309.4850621243721
278.2144997569626
255.20386642387308
239.08639479400728
228.33051500211488
221.48362853877617
217.31956271546778
214.89565749411125
213.54242925243298
212.81628400966645
212.44093976542013
212.25365195071464
212.16328728087439
212.12116650109468
212.10254870669027
212.09585968819582
212.0973021662669
212.10945817144292
212.14383815020213
212.22868771543165
212.42477096859017
212.8525989957309
213.73341520312334
215.44183975619143
218.55939329253397
223.90787969294482
232.5370443495386
245.6553904352075
264.7751464428384
349.88889709454304
302.92088890118856
265.73351883442535
237.60590831732782
217.34541984303917
203.44072555331817
194.3408347912513
188.6545003769147
185.2562778151729
183.31041247568078
182.2406089316298
181.6746813880823
181.38600578578232
181.24373557583954
181.17592475473808
181.14483502772495
181.1317761504597
181.1287233105507
181.13469737094692
181.1561153902589
181.2116752238532
181.34380244920604
181.63988290815675
182.2665169888754
183.51748998849345
185.8695730647747
190.030090850513
196.95083938165735
207.78184200731812
223.76081710946585
245.65540992628564
309.48501741319666
265.73349889106316
231.6205638804917
206.21082151761382
188.14584924026886
175.88720647495322
167.94177489584862
163.01712550831945
160.0938522482992
158.42906448941457
157.51773222438533
157.03723679840306
156.79275442181319
156.6725069260354
156.6153536283376
156.58944024783264
156.57933825506245
156.579244023953
156.59069912794763
156.62455614026763
156.70829287954538
156.90119780770482
157.32074694387634
158.1825715409181
159.85232295417285
162.89951572106858
168.13279863346435
176.58803163472194
189.44030876015174
207.7818325626504
232.53705402073106
278.2144458790977
237.60588071235185
206.21082318820092
182.98712895393723
166.56009867325915
155.45006485130972
148.26200922418442
143.80911620317758
141.16453263721007
139.65648397591534
138.82937679307432
138.39228183458056
138.1693190368227
138.05939941345596
138.00714076989811
137.98375412950364
137.97564965005313
137.9787101010341
137.99712132716678
138.04688367015075
138.16553378007092
138.43080811039655
138.99122990166867
140.10970420707105
142.21578386466143
145.95319909428295
152.19935009411992
162.02770291110545
176.58804659841104
196.9508523211676
223.90787125716295
255.20381941943805
217.34539612204009
188.14583712547042
166.5601585875903
151.2791243626145
140.92361649782617
134.20479348802218
130.0285455536873
127.53916901006171
126.11425698443217
125.32982105200756
124.9137857005175
124.70086167961433
124.59561990532761
124.54561487331456
124.52366553837513
124.51737125727593
124.524165730602
124.55111823779518
124.61990832390896
124.77873080779803
125.12380263680312
125.83280324788228
127.20980999221258
129.7350754502495
134.10407213868513
141.23204411216372
152.19934363364982
168.1327942434651
190.03008891632726
218.55939932354147
239.08634924121313
203.4407577486043
175.88724907706842
155.4500355433451
140.92360528043685
131.0363578821654
124.59299042997917
120.57085319565243
118.16376202442845
116.78091616761233
116.01714851290991
115.61090406799713
115.40248850311323
115.299328259079
115.25044699703925
115.22956896477184
115.2252214618099
115.23640186715794
115.27322975835432
115.36321316639516
115.56492908264931
115.99151202166397
116.84550360705042
118.46325276103669
121.36065994625456
126.26406910313361
134.10406951581496
145.95320034187242
162.89952267205769
185.86955238631083
215.4418331459333
228.3305224091247
194.34085570138527
167.94181791397756
148.26197492287542
134.20478053542652
124.59298733974747
118.30332252178896
114.36300860708893
111.99758363997954
110.63511042726995
109.88094092696387
109.47907574275743
109.27262913919031
109.17041837191783
109.12221962157865
109.10234936403344
109.10017020872989
109.1162512371447
109.16374464635112
109.27568329725227
109.51991468275617
110.0236957466918
111.00877002958939
112.8341413917254
116.03767785163376
121.36065671164229
129.73506848249372
142.2157736026524
159.85232094433638
183.51748772351348
213.73342404652826
221.48364314104353
188.65452591906643
163.01707216512636
143.80908655515108
130.0285441698012
120.57086223011484
114.36300653475126
110.46421622926115
108.11900197831478
106.76600573436524
106.01612524379638
105.61615727000955
105.41056627685718
105.30884180390922
105.26117924027668
105.24235165999497
105.24250876355457
105.26372802812305
105.32195893077832
105.45505277270101
105.73843575676285
106.31009528139958
107.40515465823299
109.39672566346722
112.83413973595742
118.46325046291425
127.20981139665669
140.10970529074015
158.18255752437508
182.26649796491355
212.8525891268177
217.31956975587883
185.2563105599013
160.0938076232882
141.1645150824269
127.53917073877082
118.16375389907725
111.997581934772
108.11900753588192
105.78322189277398
104.43447042898178
103.68644477971336
103.2872826992456
103.08208176457077
102.98066702506434
102.9335030070212
102.9157527395361
102.91828912742012
102.94454406337091
103.01285124716067
103.16492067715214
103.48183937462306
104.10899232356469
105.28984950725656
107.40515618964673
111.00877030978022
116.84550284068976
125.83280194432704
138.99122583491672
157.32075060298428
181.63988953976084
212.4247897012663
214.89569272099257
183.31034867679261
158.42904226233927
139.65648091360663
126.11426894857517
116.78091528589682
110.63511506296385
106.76600462535515
104.43446951317456
103.0875569681023
102.3403171383847
101.9415027063675
101.736508691832
101.63534184553129
101.58866532594391
101.5719809004376
101.57679123370293
101.60765623490121
101.68478195564369
101.85271248600158
102.19638946102026
102.86579721821816
104.10899126756976
106.31009495992453
110.02369556640471
115.99151158006622
125.12380253571337
138.4307917822271
156.90118344300046
181.34378579202826
212.228679070463
213.54248753523186
182.2405592944725
157.51772047145633
138.82938211069646
125.3298119881474
116.01714983289831
109.88094733315077
106.01612543692835
103.68644608738215
102.34031704716182
101.59341284054453
101.19476590491055
100.98991480062607
100.88897593141012
100.8427704603928
100.82708378038988
100.83393116959914
100.86874163659712
100.95307376584215
101.13337587182727
101.49697087649454
102.19639048685181
103.48183971136771
105.73843477585429
109.51991308032149
115.56492786267651
124.77872798483685
138.16553209803314
156.70829791204056
181.21168372297748
212.14382485033912
212.81622440730476
181.67464921331253
157.0372350306679
138.39229397759846
124.91377802382563
115.61090760566695
109.47907216704537
105.6161579722483
103.28728036576001
101.9415027084738
101.19476663173387
100.79623314071176
100.59151351755955
100.49079905721582
100.4450359814253
100.43023361756016
100.4387948418073
100.47676677200666
100.56660552900223
100.75592677581858
101.13337662359572
101.85271305484135
103.16492022282972
105.4550547900385
109.27568638742551
115.36321893841802
124.61990390847053
138.04687813191345
156.62455727253553
181.1561171008443
212.10947212303304
212.44091226225865
181.38600083396278
156.79277184471067
138.1693069510263
124.70086373203762
115.40249939232045
109.27262839603237
105.41056946486081
103.08208062384608
101.73650942060922
100.98991438485868
100.59151328134303
100.38695194409217
100.28647513561171
100.24112316693207
100.22707135562842
100.23699454048314
100.27734593493618
100.3711277969273
100.56660497605988
100.95307358164129
101.68478276041725
103.01284951460764
105.32195825394282
109.16374341930377
115.27322775816491
124.55111667853285
137.99711981940388
156.5907055897699
181.13467479164632
212.097305845137
212.2536299248304
181.24373466109063
156.67252964936804
138.0593883452458
124.59562347135508
115.29932180669944
109.17041876157464
105.30883940928324
102.98066630264289
101.63534296866376
100.8889754125006
100.49079902927423
100.28647507978391
100.18628320191691
100.14132941462618
100.12790531703529
100.13886454447682
100.1809085983675
100.27734585385892
100.4767669175819
100.86874155714261
101.60765673471884
102.94454390577138
105.26372985888042
109.11625455475209
115.23639900402007
124.524161905157
137.9787054522923
156.57924518070615
181.12872706708208
212.09585899705206
212.16328652446973
181.17594383711162
156.61534050799804
138.0071414260317
124.54562901776733
115.250445467956
109.12222479986058
105.26117867722084
102.93350296627273
101.58866508733894
100.8427704445673
100.44503614945187
100.24112311054284
100.14132947227453
100.09680774816668
100.08393019121513
100.09566646690277
100.13886449561555
100.23699440631343
100.43879464735548
100.83393119569345
101.57679088110446
102.91828750341314
105.24250811980357
109.1001688618376
115.22522058414839
124.51737051051683
137.9756493142117
156.57932286895635
181.13177237418907
212.1025405162482
212.12116704388393
181.1448569869168
156.58942796116241
137.98375707371744
124.52365508313959
115.22956873053849
109.10234489502743
105.24235187886984
102.91575356528816
101.57198064209564
100.82708386628663
100.4302332040805
100.22707137159492
100.12790523001837
100.08393019239499
100.07158626972182
100.08393021496455
100.1279052638709
100.22707151120275
100.4302333880236
100.82708364516012
101.57198146423742
102.91575271463799
105.24235375633855
109.10234745616643
115.22956646580401
124.52366315383465
137.98374994047606
156.58944471425207
181.14482547174794
212.1211687143128
212.102570122025
181.1317529303014
156.57934467918238
137.9756675285009
124.51736807685623
115.22522859245748
109.10016907831556
105.24251052056817
102.91828749707832
101.57679180940488
100.83393182002327
100.43879463774931
100.23699473180503
100.13886452164108
100.0956664893335
100.08393023227276
100.09680778474262
100.14132936597242
100.24112316450433
100.44503585923584
100.84276996729248
101.58866508024873
102.93350149981201
105.26117839842425
109.12221932027785
115.25044669044908
124.54561526865494
138.0071237913182
156.61535082609447
181.17590845857285
212.16327914387284
212.0958912065477
181.1287057362869
156.57925439023396
137.9786931997463
124.52416471561128
115.23639455169335
109.11625127087174
105.26373114166303
102.94454240743543
101.60765711205445
100.86874120147023
100.47676664809151
100.27734578202019
100.18090854795666
100.13886458434766
100.1279053293094
100.14132942823413
100.1862832694009
100.28647516658229
100.49079889775503
100.88897583168132
101.63534241336784
102.98066728995107
105.30884072951625
109.17041690975432
115.29932642037278
124.59561694939872
138.0593978522439
156.67249876801043
181.2437269204629
212.25365310824938
212.0972693736389
181.13468721511882
156.5907158216284
137.9971055246683
124.55112065904332
115.27322289021338
109.16374402954519
105.3219562133884
103.01284997418603
101.68478321978037
100.9530731790361
100.56660538513228
100.37112771289051
100.27734588106351
100.23699453268591
100.22707135037125
100.24112312805289
100.28647519424833
100.38695185851996
100.59151318151102
100.98991466651329
101.73650913141795
103.08208141734245
105.41056767905773
109.2726317970137
115.40249393200146
124.70085679059986
138.16932161838253
156.79275401220534
181.38600588194387
212.44095005544742
212.10945085582566
181.15612792799334
156.62453905449385
138.0468811772444
124.61989670070119
115.36321363563209
109.27568833640983
105.45505227876455
103.16492088895775
101.85271243230063
101.1333761435397
100.75592663849261
100.56660542226133
100.47676686936292
100.43879486424608
100.43023362123662
100.4450360101348
100.49079909162396
100.59151343901571
100.79623334232444
101.19476628523992
101.9415031982584
103.28728097166116
105.61615657229473
109.47907462952469
115.61090244907585
124.91378388463737
138.39227002665868
157.03722939545358
181.67467256479736
212.81628468061928
212.1438340104596
181.211693124465
156.70827687194105
138.16553676969983
124.77872050511289
115.56492877959867
109.51990978423564
105.73843559500854
103.48184054351897
102.19638979311445
101.49697164934325
101.13337575295098
100.95307367381324
100.86874160931548
100.83393112726635
100.8270837818944
100.84277051518167
100.88897587521151
100.98991476091922
101.19476603858948
101.59341264172103
102.34031743108665
103.68644490361015
106.01612737744858
109.88094356224909
116.0171451714137
125.32982284218309
138.82937143948607
157.5177316790262
182.24060905452848
213.5424260389791
212.2286847348777
181.3437585853013
156.901186668548
138.43078134778787
125.12379482520416
115.99151463085214
110.02369172512515
106.31009614671548
104.10899028526224
102.86579643725375
102.19638922355742
101.85271227492532
101.68478215307003
101.60765631774389
101.57679124334874
101.57198091058056
101.58866532964842
101.63534180012375
101.73650879034753
101.94150251510212
102.34031741691322
103.0875572531044
104.43446867783938
106.76600617731528
110.63511200170898
116.78092026391708
126.1142542618901
139.6564824435735
158.42907264834835
183.31042367194704
214.8956742081789
212.4248174738903
181.63988058667877
157.32077144588578
138.99122676088226
125.83281193411429
116.84550419784458
111.0087764508698
107.40516132795479
105.28985144758248
104.10899636809371
103.48184173266782
103.16492291196433
103.01285350550005
102.9445462326979
102.91829144723813
102.91575511207053
102.93350520844221
102.98066929094918
103.0820840347116
103.28728467750128
103.6864469384876
104.43447143539998
105.78322431300984
108.11900582523381
111.99757899801502
118.16376040159322
127.53916182766962
141.1645221210692
160.0938454542395
185.25624923382355
217.31954481677516
212.85258217726732
182.26652309447383
158.18255954680475
140.10970711553193
127.20982543268613
118.4632524439028
112.83414772745445
109.39672933474277
107.40515802178824
106.31009910531516
105.73843939293012
105.45505708030208
105.32196307957446
105.26373196116856
105.24251264528881
105.24235550223509
105.26118307755873
105.30884569739554
105.41056999036772
105.61616121918489
106.01612892736503
106.76600863428196
108.11900591998005
110.46421680204018
114.36301162534062
120.57085310240758
130.0285451945986
143.80910730178286
163.01712298922703
188.65449365011213
221.48362703613574
213.7334085620425
183.51750687143777
159.85231652199016
142.21578325645962
129.73506748022342
121.3606637353035
116.03768422406057
112.83414335331636
111.00877559015676
110.02369894864157
109.51991768565549
109.2756863235071
109.16374747932528
109.11625443882892
109.10017353562387
109.10235238849768
109.12222286594054
109.17042155608357
109.27263214099428
109.47907894937177
109.88094363541299
110.6351141171892
111.99758516269685
114.36301021938972
118.30333089739068
124.59298635775004
134.20479184385368
148.26200935537878
167.94177111161116
194.3408325518568
228.33052436089176
215.44184108693986
185.86953697053738
162.89951080093965
145.95320753672686
134.10406298551337
126.2640724569967
121.3606582942993
118.4632513243587
116.84550313023774
115.9915114024849
115.56492973049487
115.36321375969862
115.27322994663061
115.23640193555794
115.2252214462119
115.2295690440344
115.25044711931491
115.29932834662051
115.40248891058016
115.61090419291763
116.01714854474292
116.78091715322273
118.16376145142866
120.57085620667485
124.59298508846967
131.03636057182936
140.92362305714713
155.4500755983799
175.88722014910886
203.44073481721279
239.08635123506158
218.559397261701
190.0300632145629
168.13278911437027
152.19932686151668
141.23203945905883
134.10406774261787
129.73506562366313
127.20980565719925
125.83279601725269
125.123795152226
124.77872333592869
124.61990048081425
124.55111108230851
124.52415881899933
124.51736384152566
124.52365855080089
124.54560773555362
124.5956126001532
124.70085460501544
124.9137785142627
125.32981452406571
126.11424932590565
127.5391622667808
130.028543378923
134.20478532607248
140.9236173025642
151.2791414797541
166.56010925521065
188.14580118688394
217.34537303776574
255.2038183225532
223.90788326576052
196.95086624106804
176.58808149366618
162.02771921533642
152.1993770793246
145.9532186886159
142.2158031069558
140.10972419510097
138.99124941658303
138.4308293967692
138.16555507612674
138.0469042912234
137.9971417037665
137.9787303128113
137.97567009816072
137.98377457190583
138.00716122834885
138.05942023021595
138.16933929853639
138.39230216648323
138.82939755534892
139.6565033515225
141.16455352313136
143.80913038017172
148.26202704205483
155.4500903826542
166.56013565645273
182.9871019022658
206.2107889208664
237.60585217455284
278.214450178109
232.53706457297244
207.78186539123715
189.44032470780974
176.58805940221725
168.13282515266977
162.8995346040548
159.8523479896075
158.1825929105608
157.32076783300946
156.901218573451
156.70831295141164
156.62457715263346
156.59072050072743
156.57926474049455
156.57935959250375
156.5894613184966
156.61537446959233
156.67252790837156
156.7927753804847
157.03725793964182
157.51775224102067
158.42908515581308
160.09387485589014
163.01714198500866
167.94179541070855
175.88723471177522
188.14581714194702
206.21079037474576
231.6205288099703
265.7334671770916
309.4850155395669
245.65541261904661
223.7608406495406
207.78184485147423
196.95085424998558
190.03009784057238
185.86957992160686
183.51749781044
182.26652440358436
181.63989275955578
181.34381227202928
181.21168406610076
181.15612396767355
181.1347057502065
181.12873216045145
181.13178490317065
181.14484383830583
181.17593396735765
181.24374406219047
181.38601461718588
181.67469053579026
182.24061709960034
183.31042161001028
185.25628214684707
188.65450739404014
194.3408468522606
203.44074528557613
217.34538230772668
237.60585828426906
265.7334606085027
302.9208327757294
349.8888030789742
264.7751628595291
245.6553848932643
232.53705092131597
223.90788527589888
218.5593903908349
215.44184370914542
213.73341501389964
212.8525994913038
212.42477127501294
212.228686185861
212.14383806852382
212.10945831418422
212.09730212634335
212.0958600901898
212.1025487956895
212.12116659172017
212.16328683392288
212.2536522315015
212.44093986699104
212.81628318236312
213.54242916479117
214.895659114403
217.31955985458376
221.48362810593457
228.3305186381053
239.08634594443572
255.20381823065037
278.21444093007824
309.48499196832154
349.8887851750802
398.7469856123591
