# vtk DataFile Version 2.0
Unstructured Grid Example
ASCII
DATASET UNSTRUCTURED_GRID

POINTS 961 float
0.150000006 -0.00839745998 0
0.146666661 -0.00839745998 0
0.143333331 -0.00839745998 0
0.140000001 -0.00839745998 0
0.13666667 -0.00839745998 0
0.13333334 -0.00839745998 0
0.129999995 -0.00839745998 0
0.126666665 -0.00839745998 0
0.123333335 -0.00839745998 0
0.119999997 -0.00839745998 0
0.116666667 -0.00839745998 0
0.113333337 -0.00839745998 0
0.109999999 -0.00839745998 0
0.106666669 -0.00839745998 0
0.103333332 -0.00839745998 0
0.100000001 -0.00839745998 0
0.0966666639 -0.00839745998 0
0.0933333337 -0.00839745998 0
0.0900000036 -0.00839745998 0
0.086666666 -0.00839745998 0
0.0833333358 -0.00839745998 0
0.0799999982 -0.00839745998 0
0.0766666681 -0.00839745998 0
0.0733333305 -0.00839745998 0
0.0700000003 -0.00839745998 0
0.0666666701 -0.00839745998 0
0.0633333325 -0.00839745998 0
0.0599999987 -0.00839745998 0
0.0566666685 -0.00839745998 0
0.0533333346 -0.00839745998 0
0.0500000007 -0.00839745998 0
0.148333326 -0.0112842107 0
0.144999996 -0.0112842107 0
0.141666666 -0.0112842107 0
0.138333336 -0.0112842107 0
0.135000005 -0.0112842107 0
0.13166666 -0.0112842107 0
0.12833333 -0.0112842107 0
0.125 -0.0112842107 0
0.12166667 -0.0112842107 0
0.118333332 -0.0112842107 0
0.115000002 -0.0112842107 0
0.111666664 -0.0112842107 0
0.108333334 -0.0112842107 0
0.104999997 -0.0112842107 0
0.101666667 -0.0112842107 0
0.0983333364 -0.0112842107 0
0.0949999988 -0.0112842107 0
0.0916666687 -0.0112842107 0
0.088333331 -0.0112842107 0
0.0850000009 -0.0112842107 0
0.0816666633 -0.0112842107 0
0.0783333331 -0.0112842107 0
0.075000003 -0.0112842107 0
0.0716666654 -0.0112842107 0
0.0683333352 -0.0112842107 0
0.0649999976 -0.0112842107 0
0.0616666675 -0.0112842107 0
0.0583333336 -0.0112842107 0
0.0549999997 -0.0112842107 0
0.0516666658 -0.0112842107 0
0.0483333319 -0.0112842107 0
0.146666661 -0.0141709624 0
0.143333331 -0.0141709624 0
0.140000001 -0.0141709624 0
0.13666667 -0.0141709624 0
0.13333334 -0.0141709624 0
0.129999995 -0.0141709624 0
0.126666665 -0.0141709624 0
0.123333335 -0.0141709624 0
0.119999997 -0.0141709624 0
0.116666667 -0.0141709624 0
0.113333337 -0.0141709624 0
0.109999999 -0.0141709624 0
0.106666669 -0.0141709624 0
0.103333332 -0.0141709624 0
0.100000001 -0.0141709624 0
0.0966666639 -0.0141709624 0
0.0933333337 -0.0141709624 0
0.0900000036 -0.0141709624 0
0.086666666 -0.0141709624 0
0.0833333358 -0.0141709624 0
0.0799999982 -0.0141709624 0
0.0766666681 -0.0141709624 0
0.0733333305 -0.0141709624 0
0.0700000003 -0.0141709624 0
0.0666666701 -0.0141709624 0
0.0633333325 -0.0141709624 0
0.0599999987 -0.0141709624 0
0.0566666685 -0.0141709624 0
0.0533333346 -0.0141709624 0
0.0500000007 -0.0141709624 0
0.0466666669 -0.0141709624 0
0.144999996 -0.0170577131 0
0.141666666 -0.0170577131 0
0.138333336 -0.0170577131 0
0.135000005 -0.0170577131 0
0.13166666 -0.0170577131 0
0.12833333 -0.0170577131 0
0.125 -0.0170577131 0
0.12166667 -0.0170577131 0
0.118333332 -0.0170577131 0
0.115000002 -0.0170577131 0
0.111666664 -0.0170577131 0
0.108333334 -0.0170577131 0
0.104999997 -0.0170577131 0
0.101666667 -0.0170577131 0
0.0983333364 -0.0170577131 0
0.0949999988 -0.0170577131 0
0.0916666687 -0.0170577131 0
0.088333331 -0.0170577131 0
0.0850000009 -0.0170577131 0
0.0816666633 -0.0170577131 0
0.0783333331 -0.0170577131 0
0.075000003 -0.0170577131 0
0.0716666654 -0.0170577131 0
0.0683333352 -0.0170577131 0
0.0649999976 -0.0170577131 0
0.0616666675 -0.0170577131 0
0.0583333336 -0.0170577131 0
0.0549999997 -0.0170577131 0
0.0516666658 -0.0170577131 0
0.0483333319 -0.0170577131 0
0.0450000018 -0.0170577131 0
0.143333331 -0.0199444648 0
0.140000001 -0.0199444648 0
0.13666667 -0.0199444648 0
0.13333334 -0.0199444648 0
0.129999995 -0.0199444648 0
0.126666665 -0.0199444648 0
0.123333335 -0.0199444648 0
0.119999997 -0.0199444648 0
0.116666667 -0.0199444648 0
0.113333337 -0.0199444648 0
0.109999999 -0.0199444648 0
0.106666669 -0.0199444648 0
0.103333332 -0.0199444648 0
0.100000001 -0.0199444648 0
0.0966666639 -0.0199444648 0
0.0933333337 -0.0199444648 0
0.0900000036 -0.0199444648 0
0.086666666 -0.0199444648 0
0.0833333358 -0.0199444648 0
0.0799999982 -0.0199444648 0
0.0766666681 -0.0199444648 0
0.0733333305 -0.0199444648 0
0.0700000003 -0.0199444648 0
0.0666666701 -0.0199444648 0
0.0633333325 -0.0199444648 0
0.0599999987 -0.0199444648 0
0.0566666685 -0.0199444648 0
0.0533333346 -0.0199444648 0
0.0500000007 -0.0199444648 0
0.0466666669 -0.0199444648 0
0.043333333 -0.0199444648 0
0.141666666 -0.0228312165 0
0.138333336 -0.0228312165 0
0.135000005 -0.0228312165 0
0.13166666 -0.0228312165 0
0.12833333 -0.0228312165 0
0.125 -0.0228312165 0
0.12166667 -0.0228312165 0
0.118333332 -0.0228312165 0
0.115000002 -0.0228312165 0
0.111666664 -0.0228312165 0
0.108333334 -0.0228312165 0
0.104999997 -0.0228312165 0
0.101666667 -0.0228312165 0
0.0983333364 -0.0228312165 0
0.0949999988 -0.0228312165 0
0.0916666687 -0.0228312165 0
0.088333331 -0.0228312165 0
0.0850000009 -0.0228312165 0
0.0816666633 -0.0228312165 0
0.0783333331 -0.0228312165 0
0.075000003 -0.0228312165 0
0.0716666654 -0.0228312165 0
0.0683333352 -0.0228312165 0
0.0649999976 -0.0228312165 0
0.0616666675 -0.0228312165 0
0.0583333336 -0.0228312165 0
0.0549999997 -0.0228312165 0
0.0516666658 -0.0228312165 0
0.0483333319 -0.0228312165 0
0.0450000018 -0.0228312165 0
0.0416666679 -0.0228312165 0
0.140000001 -0.0257179681 0
0.13666667 -0.0257179681 0
0.13333334 -0.0257179681 0
0.129999995 -0.0257179681 0
0.126666665 -0.0257179681 0
0.123333335 -0.0257179681 0
0.119999997 -0.0257179681 0
0.116666667 -0.0257179681 0
0.113333337 -0.0257179681 0
0.109999999 -0.0257179681 0
0.106666669 -0.0257179681 0
0.103333332 -0.0257179681 0
0.100000001 -0.0257179681 0
0.0966666639 -0.0257179681 0
0.0933333337 -0.0257179681 0
0.0900000036 -0.0257179681 0
0.086666666 -0.0257179681 0
0.0833333358 -0.0257179681 0
0.0799999982 -0.0257179681 0
0.0766666681 -0.0257179681 0
0.0733333305 -0.0257179681 0
0.0700000003 -0.0257179681 0
0.0666666701 -0.0257179681 0
0.0633333325 -0.0257179681 0
0.0599999987 -0.0257179681 0
0.0566666685 -0.0257179681 0
0.0533333346 -0.0257179681 0
0.0500000007 -0.0257179681 0
0.0466666669 -0.0257179681 0
0.043333333 -0.0257179681 0
0.0399999991 -0.0257179681 0
0.138333336 -0.0286047198 0
0.135000005 -0.0286047198 0
0.13166666 -0.0286047198 0
0.12833333 -0.0286047198 0
0.125 -0.0286047198 0
0.12166667 -0.0286047198 0
0.118333332 -0.0286047198 0
0.115000002 -0.0286047198 0
0.111666664 -0.0286047198 0
0.108333334 -0.0286047198 0
0.104999997 -0.0286047198 0
0.101666667 -0.0286047198 0
0.0983333364 -0.0286047198 0
0.0949999988 -0.0286047198 0
0.0916666687 -0.0286047198 0
0.088333331 -0.0286047198 0
0.0850000009 -0.0286047198 0
0.0816666633 -0.0286047198 0
0.0783333331 -0.0286047198 0
0.075000003 -0.0286047198 0
0.0716666654 -0.0286047198 0
0.0683333352 -0.0286047198 0
0.0649999976 -0.0286047198 0
0.0616666675 -0.0286047198 0
0.0583333336 -0.0286047198 0
0.0549999997 -0.0286047198 0
0.0516666658 -0.0286047198 0
0.0483333319 -0.0286047198 0
0.0450000018 -0.0286047198 0
0.0416666679 -0.0286047198 0
0.038333334 -0.0286047198 0
0.13666667 -0.0314914696 0
0.13333334 -0.0314914696 0
0.129999995 -0.0314914696 0
0.126666665 -0.0314914696 0
0.123333335 -0.0314914696 0
0.119999997 -0.0314914696 0
0.116666667 -0.0314914696 0
0.113333337 -0.0314914696 0
0.109999999 -0.0314914696 0
0.106666669 -0.0314914696 0
0.103333332 -0.0314914696 0
0.100000001 -0.0314914696 0
0.0966666639 -0.0314914696 0
0.0933333337 -0.0314914696 0
0.0900000036 -0.0314914696 0
0.086666666 -0.0314914696 0
0.0833333358 -0.0314914696 0
0.0799999982 -0.0314914696 0
0.0766666681 -0.0314914696 0
0.0733333305 -0.0314914696 0
0.0700000003 -0.0314914696 0
0.0666666701 -0.0314914696 0
0.0633333325 -0.0314914696 0
0.0599999987 -0.0314914696 0
0.0566666685 -0.0314914696 0
0.0533333346 -0.0314914696 0
0.0500000007 -0.0314914696 0
0.0466666669 -0.0314914696 0
0.043333333 -0.0314914696 0
0.0399999991 -0.0314914696 0
0.0366666652 -0.0314914696 0
0.135000005 -0.0343782231 0
0.13166666 -0.0343782231 0
0.12833333 -0.0343782231 0
0.125 -0.0343782231 0
0.12166667 -0.0343782231 0
0.118333332 -0.0343782231 0
0.115000002 -0.0343782231 0
0.111666664 -0.0343782231 0
0.108333334 -0.0343782231 0
0.104999997 -0.0343782231 0
0.101666667 -0.0343782231 0
0.0983333364 -0.0343782231 0
0.0949999988 -0.0343782231 0
0.0916666687 -0.0343782231 0
0.088333331 -0.0343782231 0
0.0850000009 -0.0343782231 0
0.0816666633 -0.0343782231 0
0.0783333331 -0.0343782231 0
0.075000003 -0.0343782231 0
0.0716666654 -0.0343782231 0
0.0683333352 -0.0343782231 0
0.0649999976 -0.0343782231 0
0.0616666675 -0.0343782231 0
0.0583333336 -0.0343782231 0
0.0549999997 -0.0343782231 0
0.0516666658 -0.0343782231 0
0.0483333319 -0.0343782231 0
0.0450000018 -0.0343782231 0
0.0416666679 -0.0343782231 0
0.038333334 -0.0343782231 0
0.0350000001 -0.0343782231 0
0.13333334 -0.0372649729 0
0.129999995 -0.0372649729 0
0.126666665 -0.0372649729 0
0.123333335 -0.0372649729 0
0.119999997 -0.0372649729 0
0.116666667 -0.0372649729 0
0.113333337 -0.0372649729 0
0.109999999 -0.0372649729 0
0.106666669 -0.0372649729 0
0.103333332 -0.0372649729 0
0.100000001 -0.0372649729 0
0.0966666639 -0.0372649729 0
0.0933333337 -0.0372649729 0
0.0900000036 -0.0372649729 0
0.086666666 -0.0372649729 0
0.0833333358 -0.0372649729 0
0.0799999982 -0.0372649729 0
0.0766666681 -0.0372649729 0
0.0733333305 -0.0372649729 0
0.0700000003 -0.0372649729 0
0.0666666701 -0.0372649729 0
0.0633333325 -0.0372649729 0
0.0599999987 -0.0372649729 0
0.0566666685 -0.0372649729 0
0.0533333346 -0.0372649729 0
0.0500000007 -0.0372649729 0
0.0466666669 -0.0372649729 0
0.043333333 -0.0372649729 0
0.0399999991 -0.0372649729 0
0.0366666652 -0.0372649729 0
0.0333333351 -0.0372649729 0
0.13166666 -0.0401517227 0
0.12833333 -0.0401517227 0
0.125 -0.0401517227 0
0.12166667 -0.0401517227 0
0.118333332 -0.0401517227 0
0.115000002 -0.0401517227 0
0.111666664 -0.0401517227 0
[...]
POINT_DATA 961
SCALARS Temp float 1
LOOKUP_TABLE default
236.28722756483057
191.02038060814752
166.42361305196346
155.91480105535823
152.02314742579242
150.7139099692006
150.3009386244038
150.1764670519297
150.14020445163277
150.1299145296232
150.12705371035125
150.12627555973586
150.12606576006334
150.12600974059757
150.12599679229174
150.12599039068235
150.1259895556208
150.1259876427651
150.12598988581792
150.12599032246803
150.12599286071045
150.1260089781699
150.12609070907558
150.12657614615892
150.1292984438195
150.14410680293486
150.22108413990026
150.59626005403533
152.2470293260346
158.333253152972
176.11243404209017
191.02039828852713
151.9645203658688
133.61617544219638
126.24521306175315
123.61979068768312
122.75709917670521
122.48904211899207
122.40908794882787
122.38597271752285
122.37945268782313
122.37765056962333
122.37715963617099
122.37702797702404
122.37699331005159
122.37698224762184
122.37698147656546
122.3769812660682
122.37698174119892
122.3769811980997
122.37698222646341
122.37698880687759
122.3770243011265
122.37724201408182
122.37845830257498
122.38508857647565
122.41976639678778
122.59083319195936
123.36364573762984
126.39609688695161
136.03299262432276
158.33326667900815
166.42359467382522
133.61617435087436
118.15862843105043
111.96324736730027
109.74705147824669
109.0141442624796
108.78498788276599
108.71626605764783
108.69630766445154
108.69065669712623
108.68909097561078
108.688663828465
108.68854897335416
108.68851856964297
108.68851089481414
108.68850824775014
108.6885070417689
108.68850796224955
108.68850833800246
108.6885109238782
108.68852614967092
108.68861420828486
108.68910381482131
108.69175923692342
108.70558325663123
108.77362227193498
109.08294091371033
110.3331400367823
114.61415311627718
126.39608773878454
152.24703045420384
155.91478831463553
126.2452157266352
111.96325407027864
106.15565611041711
104.05825119871298
103.35987925497544
103.14042573641628
103.07436733379357
103.05512917330304
103.0496713905656
103.04815503489466
103.0477411175537
103.04762978478391
103.0475998635936
103.047592493124
103.0475904578957
103.04759024765129
103.04759006254345
103.0475910030153
103.04759676015298
103.04762939375856
103.04781240041639
103.04879139833275
103.05383243310501
103.07842904634984
103.18999204893063
103.64745502216746
105.29103699112761
110.3331448361863
123.36365462206672
150.59625469387544
152.02314636140264
123.61979532413527
109.74705675119739
104.05826020759574
101.99356871392678
101.3039853858617
101.0868561196744
101.02140657262093
101.00232702609914
100.99691017902602
100.99540462969102
100.99499347850842
100.99488285294957
100.9948535599384
100.99484571588482
100.99484361955753
100.99484331806767
100.99484353480584
100.99484556597223
100.99485723641554
100.99492128968402
100.99525942599995
100.99697793819098
101.0052691024604
101.04264972506627
101.19698847695825
101.76893832115677
103.64745333875351
109.08293995053933
122.5908307729092
150.22109038633903
150.71390643013447
122.75710969100028
109.01415326358564
103.35987220430775
101.30398330693687
100.61659920124991
100.40001847740407
100.33470607333791
100.31566107364331
100.31025264152224
100.30874927734914
100.30833869589941
100.30822817075017
100.30819885720399
100.30819113649696
100.30818919295818
100.3081887658137
100.30818933916518
100.30819324819787
100.30821448829313
100.3083255284574
100.30888157129206
100.31153135389539
100.32338983890483
100.37249874358365
100.55830322915702
101.1969883460189
103.18999254218335
108.77362596759704
122.41975338981304
150.1440982588643
150.3009343711949
122.48904948640745
108.78500270608717
103.14041554202072
101.08685392201373
100.40001824101577
100.18356666849957
100.11828534204564
100.09924771052715
100.09384110424362
100.09233819236118
100.09192772105011
100.09181727226043
100.09178790348352
100.09178018449413
100.09177823236811
100.09177794524292
100.09177908964836
100.09178585204548
100.09182079086307
100.09199331284523
100.09280549803685
100.09641249794133
100.11136408949028
100.16876140870258
100.3724985949572
101.04264907201801
103.07842742213515
108.70558066273527
122.3850858825192
150.12930777525628
150.1764719311978
122.40909575796731
108.71624142285138
103.07435890036221
101.02140544831742
100.33470647944837
100.11828530231305
100.05301096702911
100.03397487849126
100.02856867090465
100.02706584861036
100.02665539666735
100.02654494435359
100.02651559154029
100.0265078923424
100.02650595311893
100.02650583382857
100.02650779728073
100.02651838137658
100.02657012021089
100.02681086356162
100.02787207763092
100.0322704700917
100.04933545298958
100.11136405105307
100.32338980993235
101.00526911582631
103.05383244102178
108.69175386351553
122.37844398605395
150.12656646613112
150.14019621056624
122.38598682900621
108.69628039234978
103.05512328484718
101.00232703945196
100.31566080924503
100.09924774274718
100.03397495272903
100.01493919104179
100.00953306942549
100.00803026377369
100.00761982079676
100.00750936400618
100.00748001315606
100.00747232008578
100.00747043161437
100.00747054043144
100.00747354453165
100.00748859811401
100.0075580177373
100.00786193349
100.00912078867985
100.01404451456315
100.03227049372065
100.09641247267085
100.31153123520788
100.99697783671682
103.04879004420498
108.6891049768475
122.37724538598088
150.12610579391463
150.12992099501173
122.37939776218289
108.69064525508007
103.04967085528426
100.99691225187291
100.31025272661057
100.09384127462774
100.02856868392394
100.00953306743365
100.00412695177648
100.00262415450864
100.00221371119056
100.00210325615916
100.00207390913774
100.0020662275198
100.00206440101594
100.00206478612492
100.00206894835483
100.00208848606265
100.00217360497518
100.00252591539252
100.00391271184209
100.00912078180099
100.0278720654088
100.09280550298003
100.30888157163739
100.99525949427482
103.04780870371316
108.6886074488728
122.37701268061318
150.12599870666122
150.12709926976962
122.37761339965473
108.68908894362255
103.0481576385552
100.99540452393836
100.30874952525927
100.09233842207857
100.02706584584726
100.00803027103639
100.00262415395103
100.00112135892695
100.00071091519658
100.00060046142654
100.00057111772182
100.00056345286589
100.00056169822456
100.0005623778822
100.00056765683244
100.00059102817193
100.00068780341424
100.00107075412612
100.00252591731508
100.0078619360539
100.02681085277247
100.09199327784259
100.30832544235992
100.99492068904564
103.04762908120665
108.688528132618
122.37699624844818
150.1259829560429
150.1262381146285
122.3771472640543
108.68866821958179
103.04774629029964
100.99499307201611
100.3083389466929
100.0919276603965
100.0266553998687
100.0076198061382
100.00221371123484
100.00071091600945
100.00030047221716
100.00019001981369
100.00016068048068
100.00015303425143
100.00015135344664
100.00015230672503
100.00015850841524
100.00018464898912
100.00028866100948
100.00068780449972
100.00217360658326
100.00755801398434
100.02657013750681
100.09182084547054
100.30821479673321
100.9948567772607
103.04759557820617
108.68851160140412
122.37698228209061
150.12600249144998
150.12605927657026
122.3770365379528
108.68856015834587
103.04762883431793
100.99488317371535
100.30822880317177
100.09181721057288
100.02654498274762
100.00750935419126
100.00210325797475
100.00060046091725
100.00019001959657
100.00007956923555
100.00005023559314
100.00004260853395
100.0000409946487
100.00004216785116
100.00004902003836
100.00007684998381
100.00018464863102
100.00059102795407
100.0020884882164
100.00748858702227
100.02651837483604
100.09178583088577
100.30819310842547
100.99484539372756
103.04759065471065
108.68851090916502
122.37696333388241
150.12598973674883
150.12600231180895
122.37699853664317
108.6885307405489
103.04759730720936
100.99485361759305
100.30819852279886
100.09178788444314
100.02651556485287
100.00748000812797
100.00207391237522
100.00057111680793
100.00016068037397
100.00005023556876
100.00002091084764
100.00001330326575
100.00001174369598
100.00001306977842
100.00002031335815
100.0000490199992
100.00015850850872
100.00056765661033
100.00206894943526
100.00747354336798
100.02650781854574
100.09177917409995
100.3081891989613
100.99484310980614
103.0475889342928
108.68850688090146
122.37698405197916
150.12598826889257
150.12599862434692
122.37699614239186
108.68850484763787
103.04759156060267
100.99484714806388
100.30819094560403
100.09178032427411
100.02650787524
100.0074723186859
100.00206622697249
100.00056345265543
100.00015303438195
100.00004260850572
100.00001330327669
100.00000571967415
100.00000420286057
100.00000562297235
100.00001306976509
100.00004216779686
100.00015230656531
100.00056237797351
100.0020647853175
100.00747053137985
100.02650582848331
100.09177789934843
100.30818870974228
100.99484317054304
103.04758994681764
108.68850131241669
122.3769788622803
150.12598503319066
150.1259860188043
122.37699364423311
108.6884995945464
103.04759012742656
100.99484266170575
100.30818910726194
100.09177813582791
100.02650595152544
100.00747043643163
100.0020643995052
100.00056169822862
100.0001513531485
100.00004099464526
100.00001174367671
100.00000420286008
100.00000272671666
100.00000420286328
100.00001174368019
100.00004099471508
100.00015135328042
100.000561697922
100.00206440257186
100.00747043119632
100.02650597812186
100.0917781844159
100.30818902984262
100.99484345959002
103.04758929535724
108.68851134020528
122.376975840244
150.12599486600075
150.12599684459104
122.37695953009117
108.68850832853919
103.04759427559792
100.99484281502679
100.3081891764148
100.09177788892424
100.02650584781057
100.00747053089071
100.00206478724488
100.00056237887631
100.0001523065153
100.00004216791726
100.00001306976678
100.00000562297527
100.00000420286617
100.00000571968003
100.00001330325178
100.0000426085278
100.00015303414395
100.0005634521056
100.00206622682805
100.00747231183436
100.02650787508318
100.09178018180938
100.30819113246224
100.99484588027626
103.04758911146612
108.68850966298629
122.37697301258743
150.1259891125539
150.12601332727547
122.37696714441792
108.68851228038125
103.04758723528667
100.99484333911629
100.30818898037876
100.09177906665701
100.0265078334077
100.00747353239093
100.00206895063246
100.00056765616152
100.00015850826125
100.00004901998787
100.00002031334701
100.00001306978437
100.00001174370053
100.00001330326751
100.0000209108665
100.00005023560348
100.00016068027386
100.00057111756414
100.00207391051121
100.00748001494829
100.02651557926116
100.0917878721649
100.30819879510811
100.99485309828728
103.04760018589955
108.68851501320012
122.37698711766144
150.12600955931418
150.1259672862875
122.37697727925438
108.68851771599545
103.04758728055631
100.99484585472737
100.30819278372653
100.09178581958837
100.02651835331442
100.00748858871299
100.00208849001511
100.00059102735709
100.00018464895315
100.00007684995528
100.00004902002522
100.00004216784654
100.00004099464613
100.00004260852995
100.00005023561454
100.0000795691966
100.00019001955252
100.00060046125498
100.00210325756869
100.00750936026103
100.02654496223988
100.09181733351923
100.30822850651572
100.99488239055697
103.04763012523513
108.68854852497999
122.37702644301797
150.12607169510255
150.12598939872834
122.37699272672455
108.68850477487167
103.04759535134976
100.99485589769486
100.30821444709382
100.09182090458401
100.02657010344053
100.00755801916
100.00217360520614
100.00068780366851
100.00028866097064
100.00018464894069
100.00015850843553
100.00015230677685
100.00015135345203
100.00015303425221
100.00016068049615
100.00019001976672
100.0003004724077
100.0007109154656
100.00221371317596
100.00761981000178
100.02665539159989
100.0919277019909
100.3083385628706
100.99499337628824
103.04773817097981
108.68865963849474
122.3771505583966
150.12627330866505
150.12598888390184
122.37700156685568
108.6885164472605
103.04762980433779
100.99491972973598
100.30832545002318
100.09199321684092
100.02681086142847
100.00786194290805
100.00252591532715
100.00107075532955
100.00068780346876
100.0005910281357
100.00056765676783
100.00056237783794
100.00056169824065
100.0005634529841
100.00057111766554
100.00060046144327
100.0007109152996
100.00112135876718
100.00262415551782
100.00803026309543
100.02706586990904
100.09233827165347
100.30874909617643
100.99540459286371
103.04815332380652
108.68908990294602
122.37764907922266
150.1270507956227
150.125995998538
122.37698918261269
108.68860635130034
103.04780649979956
100.99525860959048
100.3088818021645
100.09280539679106
100.02787208446101
100.00912077768793
100.00391270917117
100.00252591514204
100.00217360466712
100.00208848611324
100.00206894905975
100.00206478620677
100.00206440096716
100.00206622760156
100.00207390891863
100.00210325621315
100.00221371107502
100.00262415522066
100.00412695220925
100.00953306195174
100.02856868304792
100.09384112161202
100.31025282492125
100.99690982840616
103.04967065808631
108.69066029916448
122.37945934054233
150.12992996936205
150.12612592512798
122.37723469046702
108.68911410326012
103.04879004662301
100.99697870594845
100.31153128364606
100.09641258402633
100.03227054994781
100.01404452642713
100.00912080761265
100.00786194932049
100.00755803133558
100.00748861095023
100.00747355757073
100.00747055423886
100.00747044661337
100.00747233304176
100.00748002716863
100.0075093778832
100.0076198338909
100.00803027794535
100.00953307854215
100.0149392032348
100.03397489571769
100.09924757585206
100.31566082099967
101.00232599221663
103.05512601246284
108.69630314870675
122.38595322472212
150.1401905037059
150.1265626011989
122.37846169923952
108.69175509886206
103.05383220985625
101.00527052831336
100.32338972907007
100.11136422198369
100.04933550765517
100.03227051459088
100.02787212432365
100.02681090920899
100.0265701687839
100.02651843860215
100.02650784693166
100.02650588173873
100.02650600227973
100.02650793845393
100.02651564030417
100.02654499344715
100.02665544827119
100.02706589579435
100.02856871695614
100.03397492292112
100.05301095573424
100.11828538621421
100.33470585311254
101.02140591606145
103.07436550385916
108.71626451975689
122.40908535140521
150.17646532746028
150.12929434634214
122.38510143996017
108.70557797897975
103.07842879033372
101.04264886560881
100.37249888092653
100.16876159868738
100.11136415629397
100.09641259402592
100.09280560587817
100.09199339584222
100.09182086589793
100.09178592795402
100.09177917412428
100.09177804262482
100.09177830713718
100.09178027262905
100.09178798987918
100.09181735154729
100.09192781163082
100.09233827615041
100.09384119013002
100.09924777229526
100.11828541762543
100.18356688368522
100.40001837627466
101.08685589914367
103.14042572601228
108.78498649110483
122.48903939958805
150.30093610124865
150.14410287040565
122.41974182925381
108.7736197654417
103.18999450772772
101.19698747139134
100.55830345007608
100.37249876612094
100.32338983230201
100.31153133669912
100.30888154705947
100.30832553882584
100.30821459034732
100.30819326887108
100.3081893404748
100.30818877688138
100.30818918049424
100.30819115083487
100.30819887408755
100.30822821282234
100.30833869459107
100.30874929923648
100.3102526757995
100.31566105042197
100.33470613476074
100.40001840779453
100.61659968624718
101.30398629024835
103.35988129292639
109.014147263709
122.75709864856485
150.71390647350634
150.22109016840002
122.59081212386552
109.08293834471192
103.6474504732039
101.76893774105015
101.19698791441365
101.04264883547143
101.00526832679081
100.99697737448568
100.99525864301717
100.99492044670868
100.99485636578244
100.99484477904153
100.99484286631431
100.99484244936438
100.99484289125208
100.99484495973869
100.99485273762839
100.9948821203724
100.99499270384635
100.99540385765388
100.99690931451654
101.00232637321928
101.02140588423491
101.08685529357489
101.30398547213453
101.99357162770971
104.05825218275388
109.74704835343924
123.61978905709259
152.02315673726815
150.59625997362244
123.36365809299967
110.33315904854685
105.29104087677916
103.6474602887343
103.18999679992503
103.07843344265706
103.05383663801652
103.0487954879723
103.04781686382995
103.04763453411887
103.04760123222599
103.04759532717524
103.04759442720892
103.0475945418072
103.04759491277504
103.04759695042611
103.04760452219583
103.04763407580047
103.04774562011504
103.04815960568475
103.04967561614355
103.05513353798702
103.07437166315157
103.14043040729987
103.35988507803395
104.05825706993282
106.15565211912454
111.96323999877346
126.24519252334879
155.9147870263809
152.24703595225998
126.39610913176756
114.61416164713036
110.33315034445766
109.08295079964387
108.77363075981805
108.70559217339623
108.69176955555851
108.68911304298331
108.68862310355888
108.68853440167301
108.68851985755946
108.68851801087578
108.68851656016355
108.68851655853923
108.68851744988646
108.6885197389256
108.6885277778548
108.68855810622429
108.68867292047237
108.68909950728275
108.69066655905038
108.69631690072123
108.71627446407845
108.78499765944525
109.01415344964185
109.74705510014937
111.96324786546899
118.15862127306495
133.61616369241094
166.42360812355557
158.33326589408622
136.03301213150368
126.39610097169432
123.36365364020058
122.59084101042876
122.41977307816788
122.38509448455778
122.37846336696671
122.37724964770186
122.37703395416682
122.37699569681715
122.37698857801549
122.37698746431907
122.37698859584833
122.37698812122527
122.37698846483217
122.37699001315266
122.3769994081392
122.377035224753
122.3771669075331
122.37765691639304
122.37945897028608
122.38597969872237
122.40909633787884
122.48905136481665
122.75710547688382
123.61979130257448
126.2452111339293
133.61616638910434
151.96451567674058
191.02036537333612
176.11244730550487
158.33324919674033
152.24703078468303
150.59626250198954
150.22108253654787
150.14410699674525
150.1293005924929
150.12657926939949
150.12609238219866
150.12600556499947
150.12599290307054
150.12599161976075
150.12599056585546
150.12598941270554
150.12599047140492
150.12599124798356
150.12599621906338
150.1260113801018
150.12606622378985
150.12627497243102
150.12705582604522
150.1299159044547
150.14020579024336
150.1764683389142
150.30093412754144
150.7139061280352
152.02314770405889
155.91479238550883
166.42359801204415
191.02035138476538
236.28693011593163
