# vtk DataFile Version 2.0
Unstructured Grid Example
ASCII
DATASET UNSTRUCTURED_GRID

POINTS 961 float
0.150000006 -0.00839745998 0
0.146666661 -0.00839745998 0
0.143333331 -0.00839745998 0
0.140000001 -0.00839745998 0
0.13666667 -0.00839745998 0
0.13333334 -0.00839745998 0
0.129999995 -0.00839745998 0
0.126666665 -0.00839745998 0
0.123333335 -0.00839745998 0
0.119999997 -0.00839745998 0
0.116666667 -0.00839745998 0
0.113333337 -0.00839745998 0
0.109999999 -0.00839745998 0
0.106666669 -0.00839745998 0
0.103333332 -0.00839745998 0
0.100000001 -0.00839745998 0
0.0966666639 -0.00839745998 0
0.0933333337 -0.00839745998 0
0.0900000036 -0.00839745998 0
0.086666666 -0.00839745998 0
0.0833333358 -0.00839745998 0
0.0799999982 -0.00839745998 0
0.0766666681 -0.00839745998 0
0.0733333305 -0.00839745998 0
0.0700000003 -0.00839745998 0
0.0666666701 -0.00839745998 0
0.0633333325 -0.00839745998 0
0.0599999987 -0.00839745998 0
0.0566666685 -0.00839745998 0
0.0533333346 -0.00839745998 0
0.0500000007 -0.00839745998 0
0.148333326 -0.0112842107 0
0.144999996 -0.0112842107 0
0.141666666 -0.0112842107 0
0.138333336 -0.0112842107 0
0.135000005 -0.0112842107 0
0.13166666 -0.0112842107 0
0.12833333 -0.0112842107 0
0.125 -0.0112842107 0
0.12166667 -0.0112842107 0
0.118333332 -0.0112842107 0
0.115000002 -0.0112842107 0
0.111666664 -0.0112842107 0
0.108333334 -0.0112842107 0
0.104999997 -0.0112842107 0
0.101666667 -0.0112842107 0
0.0983333364 -0.0112842107 0
0.0949999988 -0.0112842107 0
0.0916666687 -0.0112842107 0
0.088333331 -0.0112842107 0
0.0850000009 -0.0112842107 0
0.0816666633 -0.0112842107 0
0.0783333331 -0.0112842107 0
0.075000003 -0.0112842107 0
0.0716666654 -0.0112842107 0
0.0683333352 -0.0112842107 0
0.0649999976 -0.0112842107 0
0.0616666675 -0.0112842107 0
0.0583333336 -0.0112842107 0
0.0549999997 -0.0112842107 0
0.0516666658 -0.0112842107 0
0.0483333319 -0.0112842107 0
0.146666661 -0.0141709624 0
0.143333331 -0.0141709624 0
0.140000001 -0.0141709624 0
0.13666667 -0.0141709624 0
0.13333334 -0.0141709624 0
0.129999995 -0.0141709624 0
0.126666665 -0.0141709624 0
0.123333335 -0.0141709624 0
0.119999997 -0.0141709624 0
0.116666667 -0.0141709624 0
0.113333337 -0.0141709624 0
0.109999999 -0.0141709624 0
0.106666669 -0.0141709624 0
0.103333332 -0.0141709624 0
0.100000001 -0.0141709624 0
0.0966666639 -0.0141709624 0
0.0933333337 -0.0141709624 0
0.0900000036 -0.0141709624 0
0.086666666 -0.0141709624 0
0.0833333358 -0.0141709624 0
0.0799999982 -0.0141709624 0
0.0766666681 -0.0141709624 0
0.0733333305 -0.0141709624 0
0.0700000003 -0.0141709624 0
0.0666666701 -0.0141709624 0
0.0633333325 -0.0141709624 0
0.0599999987 -0.0141709624 0
0.0566666685 -0.0141709624 0
0.0533333346 -0.0141709624 0
0.0500000007 -0.0141709624 0
0.0466666669 -0.0141709624 0
0.144999996 -0.0170577131 0
0.141666666 -0.0170577131 0
0.138333336 -0.0170577131 0
0.135000005 -0.0170577131 0
0.13166666 -0.0170577131 0
0.12833333 -0.0170577131 0
0.125 -0.0170577131 0
0.12166667 -0.0170577131 0
0.118333332 -0.0170577131 0
0.115000002 -0.0170577131 0
0.111666664 -0.0170577131 0
0.108333334 -0.0170577131 0
0.104999997 -0.0170577131 0
0.101666667 -0.0170577131 0
0.0983333364 -0.0170577131 0
0.0949999988 -0.0170577131 0
0.0916666687 -0.0170577131 0
0.088333331 -0.0170577131 0
0.0850000009 -0.0170577131 0
0.0816666633 -0.0170577131 0
0.0783333331 -0.0170577131 0
0.075000003 -0.0170577131 0
0.0716666654 -0.0170577131 0
0.0683333352 -0.0170577131 0
0.0649999976 -0.0170577131 0
0.0616666675 -0.0170577131 0
0.0583333336 -0.0170577131 0
0.0549999997 -0.0170577131 0
0.0516666658 -0.0170577131 0
0.0483333319 -0.0170577131 0
0.0450000018 -0.0170577131 0
0.143333331 -0.0199444648 0
0.140000001 -0.0199444648 0
0.13666667 -0.0199444648 0
0.13333334 -0.0199444648 0
0.129999995 -0.0199444648 0
0.126666665 -0.0199444648 0
0.123333335 -0.0199444648 0
0.119999997 -0.0199444648 0
0.116666667 -0.0199444648 0
0.113333337 -0.0199444648 0
0.109999999 -0.0199444648 0
0.106666669 -0.0199444648 0
0.103333332 -0.0199444648 0
0.100000001 -0.0199444648 0
0.0966666639 -0.0199444648 0
0.0933333337 -0.0199444648 0
0.0900000036 -0.0199444648 0
0.086666666 -0.0199444648 0
0.0833333358 -0.0199444648 0
0.0799999982 -0.0199444648 0
0.0766666681 -0.0199444648 0
0.0733333305 -0.0199444648 0
0.0700000003 -0.0199444648 0
0.0666666701 -0.0199444648 0
0.0633333325 -0.0199444648 0
0.0599999987 -0.0199444648 0
0.0566666685 -0.0199444648 0
0.0533333346 -0.0199444648 0
0.0500000007 -0.0199444648 0
0.0466666669 -0.0199444648 0
0.043333333 -0.0199444648 0
0.141666666 -0.0228312165 0
0.138333336 -0.0228312165 0
0.135000005 -0.0228312165 0
0.13166666 -0.0228312165 0
0.12833333 -0.0228312165 0
0.125 -0.0228312165 0
0.12166667 -0.0228312165 0
0.118333332 -0.0228312165 0
0.115000002 -0.0228312165 0
0.111666664 -0.0228312165 0
0.108333334 -0.0228312165 0
0.104999997 -0.0228312165 0
0.101666667 -0.0228312165 0
0.0983333364 -0.0228312165 0
0.0949999988 -0.0228312165 0
0.0916666687 -0.0228312165 0
0.088333331 -0.0228312165 0
0.0850000009 -0.0228312165 0
0.0816666633 -0.0228312165 0
0.0783333331 -0.0228312165 0
0.075000003 -0.0228312165 0
0.0716666654 -0.0228312165 0
0.0683333352 -0.0228312165 0
0.0649999976 -0.0228312165 0
0.0616666675 -0.0228312165 0
0.0583333336 -0.0228312165 0
0.0549999997 -0.0228312165 0
0.0516666658 -0.0228312165 0
0.0483333319 -0.0228312165 0
0.0450000018 -0.0228312165 0
0.0416666679 -0.0228312165 0
0.140000001 -0.0257179681 0
0.13666667 -0.0257179681 0
0.13333334 -0.0257179681 0
0.129999995 -0.0257179681 0
0.126666665 -0.0257179681 0
0.123333335 -0.0257179681 0
0.119999997 -0.0257179681 0
0.116666667 -0.0257179681 0
0.113333337 -0.0257179681 0
0.109999999 -0.0257179681 0
0.106666669 -0.0257179681 0
0.103333332 -0.0257179681 0
0.100000001 -0.0257179681 0
0.0966666639 -0.0257179681 0
0.0933333337 -0.0257179681 0
0.0900000036 -0.0257179681 0
0.086666666 -0.0257179681 0
0.0833333358 -0.0257179681 0
0.0799999982 -0.0257179681 0
0.0766666681 -0.0257179681 0
0.0733333305 -0.0257179681 0
0.0700000003 -0.0257179681 0
0.0666666701 -0.0257179681 0
0.0633333325 -0.0257179681 0
0.0599999987 -0.0257179681 0
0.0566666685 -0.0257179681 0
0.0533333346 -0.0257179681 0
0.0500000007 -0.0257179681 0
0.0466666669 -0.0257179681 0
0.043333333 -0.0257179681 0
0.0399999991 -0.0257179681 0
0.138333336 -0.0286047198 0
0.135000005 -0.0286047198 0
0.13166666 -0.0286047198 0
0.12833333 -0.0286047198 0
0.125 -0.0286047198 0
0.12166667 -0.0286047198 0
0.118333332 -0.0286047198 0
0.115000002 -0.0286047198 0
0.111666664 -0.0286047198 0
0.108333334 -0.0286047198 0
0.104999997 -0.0286047198 0
0.101666667 -0.0286047198 0
0.0983333364 -0.0286047198 0
0.0949999988 -0.0286047198 0
0.0916666687 -0.0286047198 0
0.088333331 -0.0286047198 0
0.0850000009 -0.0286047198 0
0.0816666633 -0.0286047198 0
0.0783333331 -0.0286047198 0
0.075000003 -0.0286047198 0
0.0716666654 -0.0286047198 0
0.0683333352 -0.0286047198 0
0.0649999976 -0.0286047198 0
0.0616666675 -0.0286047198 0
0.0583333336 -0.0286047198 0
0.0549999997 -0.0286047198 0
0.0516666658 -0.0286047198 0
0.0483333319 -0.0286047198 0
0.0450000018 -0.0286047198 0
0.0416666679 -0.0286047198 0
0.038333334 -0.0286047198 0
0.13666667 -0.0314914696 0
0.13333334 -0.0314914696 0
0.129999995 -0.0314914696 0
0.126666665 -0.0314914696 0
0.123333335 -0.0314914696 0
0.119999997 -0.0314914696 0
0.116666667 -0.0314914696 0
0.113333337 -0.0314914696 0
0.109999999 -0.0314914696 0
0.106666669 -0.0314914696 0
0.103333332 -0.0314914696 0
0.100000001 -0.0314914696 0
0.0966666639 -0.0314914696 0
0.0933333337 -0.0314914696 0
0.0900000036 -0.0314914696 0
0.086666666 -0.0314914696 0
0.0833333358 -0.0314914696 0
0.0799999982 -0.0314914696 0
0.0766666681 -0.0314914696 0
0.0733333305 -0.0314914696 0
0.0700000003 -0.0314914696 0
0.0666666701 -0.0314914696 0
0.0633333325 -0.0314914696 0
0.0599999987 -0.0314914696 0
0.0566666685 -0.0314914696 0
0.0533333346 -0.0314914696 0
0.0500000007 -0.0314914696 0
0.0466666669 -0.0314914696 0
0.043333333 -0.0314914696 0
0.0399999991 -0.0314914696 0
0.0366666652 -0.0314914696 0
0.135000005 -0.0343782231 0
0.13166666 -0.0343782231 0
0.12833333 -0.0343782231 0
0.125 -0.0343782231 0
0.12166667 -0.0343782231 0
0.118333332 -0.0343782231 0
0.115000002 -0.0343782231 0
0.111666664 -0.0343782231 0
0.108333334 -0.0343782231 0
0.104999997 -0.0343782231 0
0.101666667 -0.0343782231 0
0.0983333364 -0.0343782231 0
0.0949999988 -0.0343782231 0
0.0916666687 -0.0343782231 0
0.088333331 -0.0343782231 0
0.0850000009 -0.0343782231 0
0.0816666633 -0.0343782231 0
0.0783333331 -0.0343782231 0
0.075000003 -0.0343782231 0
0.0716666654 -0.0343782231 0
0.0683333352 -0.0343782231 0
0.0649999976 -0.0343782231 0
0.0616666675 -0.0343782231 0
0.0583333336 -0.0343782231 0
0.0549999997 -0.0343782231 0
0.0516666658 -0.0343782231 0
0.0483333319 -0.0343782231 0
0.0450000018 -0.0343782231 0
0.0416666679 -0.0343782231 0
0.038333334 -0.0343782231 0
0.0350000001 -0.0343782231 0
0.13333334 -0.0372649729 0
0.129999995 -0.0372649729 0
0.126666665 -0.0372649729 0
0.123333335 -0.0372649729 0
0.119999997 -0.0372649729 0
0.116666667 -0.0372649729 0
0.113333337 -0.0372649729 0
0.109999999 -0.0372649729 0
0.106666669 -0.0372649729 0
0.103333332 -0.0372649729 0
0.100000001 -0.0372649729 0
0.0966666639 -0.0372649729 0
0.0933333337 -0.0372649729 0
0.0900000036 -0.0372649729 0
0.086666666 -0.0372649729 0
0.0833333358 -0.0372649729 0
0.0799999982 -0.0372649729 0
0.0766666681 -0.0372649729 0
0.0733333305 -0.0372649729 0
0.0700000003 -0.0372649729 0
0.0666666701 -0.0372649729 0
0.0633333325 -0.0372649729 0
0.0599999987 -0.0372649729 0
0.0566666685 -0.0372649729 0
0.0533333346 -0.0372649729 0
0.0500000007 -0.0372649729 0
0.0466666669 -0.0372649729 0
0.043333333 -0.0372649729 0
0.0399999991 -0.0372649729 0
0.0366666652 -0.0372649729 0
0.0333333351 -0.0372649729 0
0.13166666 -0.0401517227 0
0.12833333 -0.0401517227 0
0.125 -0.0401517227 0
0.12166667 -0.0401517227 0
0.118333332 -0.0401517227 0
0.115000002 -0.0401517227 0
0.111666664 -0.0401517227 0
[...]
POINT_DATA 961
SCALARS Temp float 1
LOOKUP_TABLE default
296.12059558593916
246.71286551529414
212.52488652745043
192.10565448419501
181.1769868182067
175.86580163600044
173.4899607687305
172.49902185186315
172.1092512085359
171.9633013078764
171.91087459730383
171.89270098132397
171.88658969890935
171.8845884158331
171.88394932943694
171.88374706873773
171.88368589466225
171.88366781245466
171.88367191145696
171.88370946196883
171.88388955712279
171.88469398419207
171.88811762147452
171.90198615777723
171.9547431059563
172.1408553469861
172.74002787831307
174.46917808780145
178.86314177984272
188.5563226415777
207.40711412415038
246.71288298531516
201.7792157221653
173.3080178416762
157.0578821313334
148.68639175356785
144.74535477740886
143.02775306330702
142.32630051392172
142.05506424886386
141.954907373521
141.91934542229083
141.9071358958572
141.90306457257844
141.90174115941386
141.90131906815512
141.90118933322643
141.90115036773759
141.90114251276898
141.90115769164092
141.9012457768671
141.90164682425666
141.90338012253454
141.910530449845
141.93834550441989
142.03932993089177
142.37669141691788
143.3971379672597
146.1446899011959
152.6261978175728
165.8743420909644
188.55633981172772
212.52485456789182
173.3080082828825
148.85307889378916
135.09129302991892
128.0555296209165
124.75366988212916
123.3147398409129
122.72602914207201
122.49774818554693
122.41318333313217
122.38306167771935
122.37268810047593
122.3692189669552
122.3680885169666
122.36772843680072
122.36761578291758
122.36758229817494
122.36758162717028
122.36761944966007
122.3678038462658
122.36861223137764
122.37198439758231
122.38531364989663
122.43474978268426
122.60470013173006
123.13874445984536
124.64997249759183
128.44456074111548
136.78757153007174
152.62618813599937
178.86314685862558
192.10562432313682
157.0578737606919
135.0912996404838
122.64500697081179
116.23298250399439
113.20036496065096
111.86902434589004
111.32073150658852
111.10690368897869
111.02730669818843
110.99883572213393
110.98899687231183
110.98569697920362
110.9846182380072
110.98427474439113
110.98416787324649
110.9841387692269
110.98414612611873
110.98422326074285
110.98457388342806
110.98605042688101
110.99195545769707
111.01419716253861
111.09234867523182
111.34551450754313
112.0922290876215
114.07291410593476
118.74424021760893
128.44457024753424
146.144700941862
174.46917055901082
181.17697016996732
148.6863894913171
128.0555320565366
116.2330069521912
110.08615982822135
107.15786636824795
105.86506619045237
105.33031577073194
105.12106255244554
105.04296218286373
105.01496847019752
105.00527845540078
105.00202420211023
105.0009599191073
105.0006198051545
105.00051453474964
105.00048935580381
105.00051221389342
105.00065334470864
105.00126088300394
105.00371009281908
105.01304042393133
105.04637859852235
105.15702564889827
105.49470352387928
106.43309302279464
108.78658220915834
114.07291034228405
124.64997005901536
143.39713506038842
172.74003455193977
175.86578759431822
144.74537059077903
124.75368906991375
113.20034815950994
107.1578607653148
104.26739419662496
102.98761553757167
102.45717043685167
102.24929743934555
102.17162776715168
102.14376632219009
102.13411618499882
102.13087358664495
102.12981288932824
102.12947428992022
102.12937096159989
102.12935097196855
102.12939725285553
102.12963198347975
102.1305923014344
102.13428413183448
102.14764644016894
102.1928649481457
102.33479501122308
102.74491308595266
103.82873700086509
106.43309236569932
112.09222987184873
123.13875015583258
142.3766747189516
172.1408466796651
173.4899596061551
143.02776348131786
123.31476520839483
111.86900350143715
105.86506026205822
102.98761464329259
101.71204211042303
101.18291461429763
100.97544294626339
100.89789347296818
100.87006754120527
100.86042776058207
100.85718836898015
100.85612838438142
100.85579041758007
100.85568911031373
100.85567742467573
100.85575630166451
100.8561133242635
100.85750289518282
100.86258555136214
100.88005943176458
100.93619822249997
101.1038168197197
101.56678949204505
102.74491226247466
105.49470105982704
111.34551006495688
122.60469688078734
142.03932715418776
171.95475250203765
172.49902950882034
142.32631501344574
122.72599035189222
111.32071451235448
105.33031319556709
102.45717240873407
101.18291428156435
100.65417771184629
100.44681933316082
100.36930282069564
100.34148615458923
100.33184900231308
100.32861037291133
100.32755080519068
100.32721364857147
100.32711501483924
100.32711424456105
100.32723380860867
100.32773284694998
100.32958176428245
100.33602347802926
100.3571273257909
100.42190633434201
100.60764445472796
101.10381654861452
102.3347947322424
105.15702580273935
111.09234895991635
122.43474024298226
141.93832843972413
171.90197645222372
172.10924914869423
142.0550868637451
122.49770956399776
111.10689150258716
105.1210625044014
102.24929563396988
100.97544291145633
100.44681995826843
100.23949310403609
100.16198539735947
100.1341711120524
100.12453466837127
100.12129622088318
100.1202369179602
100.11990066744984
100.11980558607382
100.11981788503095
100.11998280526927
100.1206279966802
100.12290882837316
100.13050822910338
100.15439204265006
100.22508933089901
100.42190653298145
100.93619809479567
102.19286447466881
105.04637811276639
111.01419447850822
122.38531618739742
141.9105354054536
171.88813505506408
171.96332213264554
141.95484624174492
122.41316635368614
111.02730521353388
105.04296799917631
102.17162778721787
100.89789444587211
100.36930285155294
100.16198536482734
100.08447981841431
100.05666622561212
100.04702995149921
100.04379162411394
100.04273263401723
100.04239747787824
100.04230646965989
100.04233280365018
100.04254271530553
100.04332065700866
100.04595793844487
100.0544188342765
100.08015873119771
100.15439195583721
100.35712724020117
100.8800594476604
102.14764640576192
105.01304061650394
110.99194668859475
122.37197371706878
141.90336550842738
171.88468432364638
171.9109275367551
141.91930158696536
122.3830559923663
110.9988398700447
105.01496651585947
102.14376716722911
100.87006895018031
100.34148616380256
100.13417121016528
100.05666622166518
100.02885281005919
100.01921658959887
100.01597837947945
100.01491973672745
100.01458582575043
100.01449904861545
100.01453885832608
100.01478840985483
100.01567281366314
100.01856861817164
100.02759183854212
100.054418870874
100.13050825882299
100.33602337195234
100.86258530564862
102.13428372572145
105.00370855837745
110.98604969647162
122.36861557242743
141.90165475531538
171.88387714423038
171.89265143731095
141.9071139376655
122.37269105182804
110.98900631874845
105.00527655764796
102.13411730941831
100.86042729415357
100.33184907705687
100.12453449697384
100.04702995405856
100.01921660762437
100.00958044117186
100.00634236757945
100.00528411627913
100.00495147493695
100.0048686546346
100.00492001485861
100.00520054814811
100.00616041974436
100.00922163159174
100.01856864066976
100.04595796318807
100.12290878917585
100.32958194555303
100.85750333703034
102.13059381861474
105.0012592383979
110.98457094418949
122.3678045410876
141.90124643717547
171.88372279892977
171.886573441293
141.90306821919881
122.36923505855998
110.9856930157925
105.00202538929511
102.13087669329046
100.85718814987617
100.32861074780118
100.12129611593902
100.04379165427292
100.01597836821713
100.00634236244423
100.00310449767125
100.0020467019611
100.0017152709794
100.00163580006523
100.00169601219562
100.00199807590411
100.00300538446623
100.00616040983402
100.0156728088997
100.04332069189724
100.12062786509254
100.32773278195558
100.85611313993257
102.12963137337434
105.00065272389281
110.9842223598126
122.36762379944764
141.90113694069248
171.88367408323472
171.88457489760992
141.901744820214
122.36810712626935
110.98461278855285
105.00096088939357
102.12981131795252
100.85612834772873
100.32755054020218
100.12023685926786
100.0427326859636
100.01491971940129
100.00528411411756
100.00204670116509
100.00098953905331
100.00065927408166
100.00058243590894
100.0006487622594
100.00096419009924
100.00199807471898
100.0052005506264
100.01478840577374
100.04254273530479
100.11998279340901
100.32723400857617
100.85575686525637
102.12939652575359
105.0005107273957
110.98414354513713
122.36758144668794
141.90114581942174
171.88366783877234
171.88395092866395
141.90133660234045
122.3677192534073
110.98427416291813
105.00062499586316
102.12947361148609
100.855791328763
100.32721352883664
100.11990065498601
100.04239746790995
100.01458582310872
100.00495147830756
100.00171527015146
100.00065927452725
100.00033035021933
100.00025559582292
100.00032584001218
100.00064876176806
100.00169601041588
100.00492001085388
100.01453885991413
100.04233278932848
100.11981776975372
100.32711417762673
100.85567714009144
102.1293507230378
105.00048899993675
110.98413844621241
122.36757213152937
141.90114729350336
171.883679442023
171.88374549103872
141.90120688704147
122.36760472379599
110.98416819027537
105.00051083863022
102.12937065560448
100.85568838018045
100.32711501509264
100.11980564641196
100.04230645070311
100.0144990494929
100.0048686465827
100.00163580001411
100.00058243513048
100.00025559581076
100.00018281629444
100.00025559596094
100.00058243534693
100.00163580214658
100.00486865018657
100.01449904314725
100.04230649496618
100.11980558139584
100.32711524551583
100.85568878891091
102.12937026511814
105.0005138616637
110.98416543173082
122.36761994663333
141.9011817677978
171.883750766524
171.88370115132426
141.90112710634625
122.36758559771036
110.98414813156391
105.00048780590468
102.12935285552484
100.85567713631244
100.32711440343269
100.11981776799908
100.04233282540031
100.014538878132
100.00492000981954
100.00169601437791
100.0006487618769
100.00032584014846
100.0002555960875
100.00033035048402
100.00065927355857
100.00171527081065
100.00495147217178
100.01458580991468
100.04239746532346
100.1199005613228
100.32721351855483
100.85579040100492
102.12947424256913
105.00062015233695
110.98426622158186
122.36772654206526
141.9013061195596
171.88394146076698
171.88369702988166
141.90112564672745
122.36758850427836
110.98413796551586
105.00051161008628
102.12939544718044
100.8557562352974
100.32723415200203
100.1199826679738
100.04254275230522
100.01478839537727
100.00520054445602
100.0019980740915
100.0009641896539
100.0006487625361
100.00058243607154
100.0006592741697
100.00098953974434
100.00204670228467
100.00528411150893
100.01491973382586
100.0427326583232
100.12023694121797
100.32755068968467
100.85612815332281
102.12981250289272
105.00095860947152
110.9846182117472
122.36808260483902
141.90173346939923
171.88458890373195
171.8836426450124
141.9011499560284
122.36763263083675
110.98421458745322
105.00065432275603
102.12963000710418
100.85611314488246
100.32773256205472
100.1206278876245
100.04332071609016
100.01567279636157
100.00616041807268
100.00300538345928
100.00199807539421
100.00169601209299
100.0016357999761
100.00171527076604
100.00204670265595
100.00310449645772
100.00634236097584
100.01597837606113
100.04379164589375
100.12129618322146
100.32861054549429
100.85718881337215
102.13087512432446
105.0020224380645
110.9856980381187
122.36921847044779
141.90306364094513
171.88659783675567
171.8837045173775
141.9012572673528
122.36779238242144
110.98457167995551
105.00125642264406
102.1305922615968
100.85750368113764
100.32958163282436
100.12290884153104
100.04595793707149
100.01856862419532
100.00922162982474
100.00616041820608
100.0052005490297
100.00492001597462
100.00486865476653
100.00495147507672
100.0052841166454
100.00634236632598
100.00958044582416
100.019216596818
100.04702998104379
100.12453453736474
100.3318489369568
100.86042756200986
102.13411557659353
105.0052778896669
110.98899010993546
122.372681797441
141.90712606373555
171.89270010490682
171.88388503789702
141.90166238730876
122.36859874830084
110.9860517941896
105.0037054426109
102.13428377557449
100.86258478751259
100.33602345045043
100.13050833075032
100.05441883842313
100.02759186299372
100.01856861778509
100.01567281250713
100.01478840902165
100.01453885721412
100.0144990488749
100.01458582776893
100.01491973549318
100.01597837967117
100.01921659228218
100.02885280525499
100.05666624064577
100.13417110593873
100.3414863518829
100.8700680491721
102.14376542768424
105.01496865852727
110.99883214369434
122.38306084676748
141.91934461982868
171.91087119772604
171.88468625293595
141.9033392666399
122.37197395934706
110.9919409906262
105.0130374532643
102.14764729868524
100.88005873678732
100.35712739154594
100.15439189522753
100.08015868982062
100.05441882866175
100.0459579320906
100.04332065971836
100.04254272455641
100.04233280484563
100.04230646922525
100.04239747807966
100.04273263173987
100.0437916258766
100.04702994793536
100.05666623642306
100.08447982367674
100.16198528930292
100.3693029066381
100.89789365271118
102.17162869718057
105.04296131207126
111.02730570886924
122.41318937849441
141.95491653321994
171.96331811443974
171.88815947056005
141.91052453368727
122.38533050145733
111.01419430197531
105.04638125905029
102.19286466310736
100.93619895927966
100.42190707090968
100.22508947639479
100.15439229558021
100.13050841541995
100.12290899456221
100.12062815753632
100.11998296231314
100.11981805268539
100.1198057648576
100.11990082667604
100.12023708936943
100.12129638943554
100.12453482634743
100.13417127800578
100.16198549287668
100.2394932599737
100.44681957120689
100.97544205516161
102.24929646398184
105.12105906128045
111.1068962346307
122.49774068287148
142.05504006515196
172.10923494025326
171.90196965626566
141.93834949036633
122.43474118780688
111.09234879800263
105.15703073573246
102.33479469963939
101.10381778843926
100.60764492422842
100.42190673134527
100.35712776103438
100.33602389142388
100.329582215597
100.32773335018177
100.32723425888653
100.32711468280002
100.32711545455984
100.32721407926537
100.3275512493493
100.3286108166204
100.33184946613117
100.34148657924919
100.36930321583299
100.44681974994606
100.6541777205905
101.18291502627336
102.45716971612144
105.33031404896987
111.32072724034019
122.72602711422515
142.3262952541739
172.4990185312565
171.9547364603088
142.03934459072508
122.60469278755308
111.34551422586459
105.49470042980317
102.74491385747744
101.56679070519611
101.1038172264546
100.93619895422813
100.8800601005447
100.86258611053131
100.85750341847944
100.85611381529239
100.85575686034308
100.85567804643699
100.85568962369187
100.85579100732775
100.85612895398064
100.85718890585144
100.86042834019813
100.87006808837901
100.89789405335932
100.97544333248142
101.18291509070473
101.71204364163953
102.98761500945506
105.86506584368571
111.86902447560985
123.31473692027187
143.02774888916815
173.48996179282335
172.14085338608444
142.37666070785738
123.13874080712445
112.09223421271011
106.43308958136566
103.82873795076243
102.7449129714401
102.33479487751822
102.19286490912653
102.14764632070694
102.134284207786
102.13059265227383
102.12963207387273
102.12939727668133
102.12935098865475
102.12937096576425
102.129474345751
102.12981295613447
102.13087374971028
102.1341161844268
102.14376640494274
102.17162790970218
102.24929739293955
102.45717092066322
102.98761496937348
104.26739597325462
107.15786946269613
113.2003700089997
124.7536764056977
144.74535698536843
175.86579033655914
172.74003458924824
143.39711263307854
124.64996720939276
114.07290220177337
108.78658021105673
106.43309120410865
105.49470026666526
105.15702326180349
105.04637640474306
105.01303779999077
105.00370730075407
105.00125788263175
105.00065066686169
105.00050979422686
105.00048650891505
105.00051202240643
105.0006171867844
105.00095717271819
105.00202159668892
105.00527582689583
105.01496582258068
105.04295931845212
105.12106026036302
105.33031380637306
105.86506368764202
107.15786693670712
110.08616805261232
116.2329866377701
128.05551626905444
148.6863804659899
181.17698012839637
174.46917810609716
146.14470853882716
128.44459449139552
118.74424926091221
114.07292764607465
112.09224004025654
111.34552499639832
111.09235908233273
111.01420718426272
110.99196622464571
110.9860620932341
110.98458468525072
110.98423379594124
110.9841565849081
110.98414933411044
110.9841785332063
110.98428544572408
110.984629259805
110.98570742369591
110.98900763082047
110.9988465606541
111.02731715299979
111.10691427666092
111.32074160070576
111.86903537904915
113.20037843314132
116.23299870535959
122.64499697363092
135.09127841198392
157.05784968077558
192.10562883446352
178.86315424932565
152.62621605718115
136.78758421439693
128.4445792741513
124.64998979362171
123.1387583627895
122.60471545481008
122.43476592297134
122.38532883437472
122.37199909168693
122.36862604912542
122.36781861334617
122.36763490952923
122.36759610534415
122.36759767457792
122.36763080515853
122.36774313615365
122.3681034440453
122.36923397332814
122.37270295222459
122.38307602668165
122.41319906745608
122.49776341477258
122.72604326223451
123.31475541766916
124.7536863954205
128.0555267307815
135.09128593847805
148.85306322958172
173.3079916363401
212.5248655729719
188.55634078415855
165.87436447154954
152.62620151720915
146.14470096560288
143.3971460410281
142.3766989534067
142.03933731192865
141.93835208806985
141.91053906112347
141.90339013298325
141.9016550084765
141.90125345784136
141.90116513332285
141.9011506207704
141.90115837876064
141.9011974592235
141.90132777977945
141.901748642977
141.9030728309817
141.90714416909697
141.91935322688462
141.9549149976796
142.05507216630141
142.32630972343034
143.02776320168437
144.74536479960912
148.68638391713438
157.0578649925211
173.30799020977804
201.77918889129114
246.71281871597137
207.40712966919068
188.5563180114339
178.8631454895307
174.46918134771977
172.7400261908354
172.14085596078255
171.9547442304885
171.90198803136644
171.88811871727407
171.88469178227507
171.8838895323249
171.88371009385972
171.88367219614378
171.88366887583962
171.88368640588206
171.88374757650055
171.88394885358767
171.88458936206476
171.8865898663143
171.89270051442543
171.91087587197174
171.96330220954712
172.10925201106264
172.4990227450615
173.4899587657058
175.8657876724687
181.17697259144813
192.1056279570467
212.52484817264258
246.71280182033775
296.12022108409934
