# vtk DataFile Version 2.0
Unstructured Grid Example
ASCII
DATASET UNSTRUCTURED_GRID

POINTS 961 float
0.150000006 -0.00839745998 0
0.146666661 -0.00839745998 0
0.143333331 -0.00839745998 0
0.140000001 -0.00839745998 0
0.13666667 -0.00839745998 0
0.13333334 -0.00839745998 0
0.129999995 -0.00839745998 0
0.126666665 -0.00839745998 0
0.123333335 -0.00839745998 0
0.119999997 -0.00839745998 0
0.116666667 -0.00839745998 0
0.113333337 -0.00839745998 0
0.109999999 -0.00839745998 0
0.106666669 -0.00839745998 0
0.103333332 -0.00839745998 0
0.100000001 -0.00839745998 0
0.0966666639 -0.00839745998 0
0.0933333337 -0.00839745998 0
0.0900000036 -0.00839745998 0
0.086666666 -0.00839745998 0
0.0833333358 -0.00839745998 0
0.0799999982 -0.00839745998 0
0.0766666681 -0.00839745998 0
0.0733333305 -0.00839745998 0
0.0700000003 -0.00839745998 0
0.0666666701 -0.00839745998 0
0.0633333325 -0.00839745998 0
0.0599999987 -0.00839745998 0
0.0566666685 -0.00839745998 0
0.0533333346 -0.00839745998 0
0.0500000007 -0.00839745998 0
0.148333326 -0.0112842107 0
0.144999996 -0.0112842107 0
0.141666666 -0.0112842107 0
0.138333336 -0.0112842107 0
0.135000005 -0.0112842107 0
0.13166666 -0.0112842107 0
0.12833333 -0.0112842107 0
0.125 -0.0112842107 0
0.12166667 -0.0112842107 0
0.118333332 -0.0112842107 0
0.115000002 -0.0112842107 0
0.111666664 -0.0112842107 0
0.108333334 -0.0112842107 0
0.104999997 -0.0112842107 0
0.101666667 -0.0112842107 0
0.0983333364 -0.0112842107 0
0.0949999988 -0.0112842107 0
0.0916666687 -0.0112842107 0
0.088333331 -0.0112842107 0
0.0850000009 -0.0112842107 0
0.0816666633 -0.0112842107 0
0.0783333331 -0.0112842107 0
0.075000003 -0.0112842107 0
0.0716666654 -0.0112842107 0
0.0683333352 -0.0112842107 0
0.0649999976 -0.0112842107 0
0.0616666675 -0.0112842107 0
0.0583333336 -0.0112842107 0
0.0549999997 -0.0112842107 0
0.0516666658 -0.0112842107 0
0.0483333319 -0.0112842107 0
0.146666661 -0.0141709624 0
0.143333331 -0.0141709624 0
0.140000001 -0.0141709624 0
0.13666667 -0.0141709624 0
0.13333334 -0.0141709624 0
0.129999995 -0.0141709624 0
0.126666665 -0.0141709624 0
0.123333335 -0.0141709624 0
0.119999997 -0.0141709624 0
0.116666667 -0.0141709624 0
0.113333337 -0.0141709624 0
0.109999999 -0.0141709624 0
0.106666669 -0.0141709624 0
0.103333332 -0.0141709624 0
0.100000001 -0.0141709624 0
0.0966666639 -0.0141709624 0
0.0933333337 -0.0141709624 0
0.0900000036 -0.0141709624 0
0.086666666 -0.0141709624 0
0.0833333358 -0.0141709624 0
0.0799999982 -0.0141709624 0
0.0766666681 -0.0141709624 0
0.0733333305 -0.0141709624 0
0.0700000003 -0.0141709624 0
0.0666666701 -0.0141709624 0
0.0633333325 -0.0141709624 0
0.0599999987 -0.0141709624 0
0.0566666685 -0.0141709624 0
0.0533333346 -0.0141709624 0
0.0500000007 -0.0141709624 0
0.0466666669 -0.0141709624 0
0.144999996 -0.0170577131 0
0.141666666 -0.0170577131 0
0.138333336 -0.0170577131 0
0.135000005 -0.0170577131 0
0.13166666 -0.0170577131 0
0.12833333 -0.0170577131 0
0.125 -0.0170577131 0
0.12166667 -0.0170577131 0
0.118333332 -0.0170577131 0
0.115000002 -0.0170577131 0
0.111666664 -0.0170577131 0
0.108333334 -0.0170577131 0
0.104999997 -0.0170577131 0
0.101666667 -0.0170577131 0
0.0983333364 -0.0170577131 0
0.0949999988 -0.0170577131 0
0.0916666687 -0.0170577131 0
0.088333331 -0.0170577131 0
0.0850000009 -0.0170577131 0
0.0816666633 -0.0170577131 0
0.0783333331 -0.0170577131 0
0.075000003 -0.0170577131 0
0.0716666654 -0.0170577131 0
0.0683333352 -0.0170577131 0
0.0649999976 -0.0170577131 0
0.0616666675 -0.0170577131 0
0.0583333336 -0.0170577131 0
0.0549999997 -0.0170577131 0
0.0516666658 -0.0170577131 0
0.0483333319 -0.0170577131 0
0.0450000018 -0.0170577131 0
0.143333331 -0.0199444648 0
0.140000001 -0.0199444648 0
0.13666667 -0.0199444648 0
0.13333334 -0.0199444648 0
0.129999995 -0.0199444648 0
0.126666665 -0.0199444648 0
0.123333335 -0.0199444648 0
0.119999997 -0.0199444648 0
0.116666667 -0.0199444648 0
0.113333337 -0.0199444648 0
0.109999999 -0.0199444648 0
0.106666669 -0.0199444648 0
0.103333332 -0.0199444648 0
0.100000001 -0.0199444648 0
0.0966666639 -0.0199444648 0
0.0933333337 -0.0199444648 0
0.0900000036 -0.0199444648 0
0.086666666 -0.0199444648 0
0.0833333358 -0.0199444648 0
0.0799999982 -0.0199444648 0
0.0766666681 -0.0199444648 0
0.0733333305 -0.0199444648 0
0.0700000003 -0.0199444648 0
0.0666666701 -0.0199444648 0
0.0633333325 -0.0199444648 0
0.0599999987 -0.0199444648 0
0.0566666685 -0.0199444648 0
0.0533333346 -0.0199444648 0
0.0500000007 -0.0199444648 0
0.0466666669 -0.0199444648 0
0.043333333 -0.0199444648 0
0.141666666 -0.0228312165 0
0.138333336 -0.0228312165 0
0.135000005 -0.0228312165 0
0.13166666 -0.0228312165 0
0.12833333 -0.0228312165 0
0.125 -0.0228312165 0
0.12166667 -0.0228312165 0
0.118333332 -0.0228312165 0
0.115000002 -0.0228312165 0
0.111666664 -0.0228312165 0
0.108333334 -0.0228312165 0
0.104999997 -0.0228312165 0
0.101666667 -0.0228312165 0
0.0983333364 -0.0228312165 0
0.0949999988 -0.0228312165 0
0.0916666687 -0.0228312165 0
0.088333331 -0.0228312165 0
0.0850000009 -0.0228312165 0
0.0816666633 -0.0228312165 0
0.0783333331 -0.0228312165 0
0.075000003 -0.0228312165 0
0.0716666654 -0.0228312165 0
0.0683333352 -0.0228312165 0
0.0649999976 -0.0228312165 0
0.0616666675 -0.0228312165 0
0.0583333336 -0.0228312165 0
0.0549999997 -0.0228312165 0
0.0516666658 -0.0228312165 0
0.0483333319 -0.0228312165 0
0.0450000018 -0.0228312165 0
0.0416666679 -0.0228312165 0
0.140000001 -0.0257179681 0
0.13666667 -0.0257179681 0
0.13333334 -0.0257179681 0
0.129999995 -0.0257179681 0
0.126666665 -0.0257179681 0
0.123333335 -0.0257179681 0
0.119999997 -0.0257179681 0
0.116666667 -0.0257179681 0
0.113333337 -0.0257179681 0
0.109999999 -0.0257179681 0
0.106666669 -0.0257179681 0
0.103333332 -0.0257179681 0
0.100000001 -0.0257179681 0
0.0966666639 -0.0257179681 0
0.0933333337 -0.0257179681 0
0.0900000036 -0.0257179681 0
0.086666666 -0.0257179681 0
0.0833333358 -0.0257179681 0
0.0799999982 -0.0257179681 0
0.0766666681 -0.0257179681 0
0.0733333305 -0.0257179681 0
0.0700000003 -0.0257179681 0
0.0666666701 -0.0257179681 0
0.0633333325 -0.0257179681 0
0.0599999987 -0.0257179681 0
0.0566666685 -0.0257179681 0
0.0533333346 -0.0257179681 0
0.0500000007 -0.0257179681 0
0.0466666669 -0.0257179681 0
0.043333333 -0.0257179681 0
0.0399999991 -0.0257179681 0
0.138333336 -0.0286047198 0
0.135000005 -0.0286047198 0
0.13166666 -0.0286047198 0
0.12833333 -0.0286047198 0
0.125 -0.0286047198 0
0.12166667 -0.0286047198 0
0.118333332 -0.0286047198 0
0.115000002 -0.0286047198 0
0.111666664 -0.0286047198 0
0.108333334 -0.0286047198 0
0.104999997 -0.0286047198 0
0.101666667 -0.0286047198 0
0.0983333364 -0.0286047198 0
0.0949999988 -0.0286047198 0
0.0916666687 -0.0286047198 0
0.088333331 -0.0286047198 0
0.0850000009 -0.0286047198 0
0.0816666633 -0.0286047198 0
0.0783333331 -0.0286047198 0
0.075000003 -0.0286047198 0
0.0716666654 -0.0286047198 0
0.0683333352 -0.0286047198 0
0.0649999976 -0.0286047198 0
0.0616666675 -0.0286047198 0
0.0583333336 -0.0286047198 0
0.0549999997 -0.0286047198 0
0.0516666658 -0.0286047198 0
0.0483333319 -0.0286047198 0
0.0450000018 -0.0286047198 0
0.0416666679 -0.0286047198 0
0.038333334 -0.0286047198 0
0.13666667 -0.0314914696 0
0.13333334 -0.0314914696 0
0.129999995 -0.0314914696 0
0.126666665 -0.0314914696 0
0.123333335 -0.0314914696 0
0.119999997 -0.0314914696 0
0.116666667 -0.0314914696 0
0.113333337 -0.0314914696 0
0.109999999 -0.0314914696 0
0.106666669 -0.0314914696 0
0.103333332 -0.0314914696 0
0.100000001 -0.0314914696 0
0.0966666639 -0.0314914696 0
0.0933333337 -0.0314914696 0
0.0900000036 -0.0314914696 0
0.086666666 -0.0314914696 0
0.0833333358 -0.0314914696 0
0.0799999982 -0.0314914696 0
0.0766666681 -0.0314914696 0
0.0733333305 -0.0314914696 0
0.0700000003 -0.0314914696 0
0.0666666701 -0.0314914696 0
0.0633333325 -0.0314914696 0
0.0599999987 -0.0314914696 0
0.0566666685 -0.0314914696 0
0.0533333346 -0.0314914696 0
0.0500000007 -0.0314914696 0
0.0466666669 -0.0314914696 0
0.043333333 -0.0314914696 0
0.0399999991 -0.0314914696 0
0.0366666652 -0.0314914696 0
0.135000005 -0.0343782231 0
0.13166666 -0.0343782231 0
0.12833333 -0.0343782231 0
0.125 -0.0343782231 0
0.12166667 -0.0343782231 0
0.118333332 -0.0343782231 0
0.115000002 -0.0343782231 0
0.111666664 -0.0343782231 0
0.108333334 -0.0343782231 0
0.104999997 -0.0343782231 0
0.101666667 -0.0343782231 0
0.0983333364 -0.0343782231 0
0.0949999988 -0.0343782231 0
0.0916666687 -0.0343782231 0
0.088333331 -0.0343782231 0
0.0850000009 -0.0343782231 0
0.0816666633 -0.0343782231 0
0.0783333331 -0.0343782231 0
0.075000003 -0.0343782231 0
0.0716666654 -0.0343782231 0
0.0683333352 -0.0343782231 0
0.0649999976 -0.0343782231 0
0.0616666675 -0.0343782231 0
0.0583333336 -0.0343782231 0
0.0549999997 -0.0343782231 0
0.0516666658 -0.0343782231 0
0.0483333319 -0.0343782231 0
0.0450000018 -0.0343782231 0
0.0416666679 -0.0343782231 0
0.038333334 -0.0343782231 0
0.0350000001 -0.0343782231 0
0.13333334 -0.0372649729 0
0.129999995 -0.0372649729 0
0.126666665 -0.0372649729 0
0.123333335 -0.0372649729 0
0.119999997 -0.0372649729 0
0.116666667 -0.0372649729 0
0.113333337 -0.0372649729 0
0.109999999 -0.0372649729 0
0.106666669 -0.0372649729 0
0.103333332 -0.0372649729 0
0.100000001 -0.0372649729 0
0.0966666639 -0.0372649729 0
0.0933333337 -0.0372649729 0
0.0900000036 -0.0372649729 0
0.086666666 -0.0372649729 0
0.0833333358 -0.0372649729 0
0.0799999982 -0.0372649729 0
0.0766666681 -0.0372649729 0
0.0733333305 -0.0372649729 0
0.0700000003 -0.0372649729 0
0.0666666701 -0.0372649729 0
0.0633333325 -0.0372649729 0
0.0599999987 -0.0372649729 0
0.0566666685 -0.0372649729 0
0.0533333346 -0.0372649729 0
0.0500000007 -0.0372649729 0
0.0466666669 -0.0372649729 0
0.043333333 -0.0372649729 0
0.0399999991 -0.0372649729 0
0.0366666652 -0.0372649729 0
0.0333333351 -0.0372649729 0
0.13166666 -0.0401517227 0
0.12833333 -0.0401517227 0
0.125 -0.0401517227 0
0.12166667 -0.0401517227 0
0.118333332 -0.0401517227 0
0.115000002 -0.0401517227 0
0.111666664 -0.0401517227 0
[...]
POINT_DATA 961
SCALARS Temp float 1
LOOKUP_TABLE default
360.72292190227296
311.03612718496703
271.84746287465066
243.51958331208593
224.37280602672624
212.24106590716804
205.01508729574243
200.95574605788948
198.7967559668965
197.7052475975782
197.17857612236202
196.93508352380914
196.8268238011436
196.78037890532403
196.76109671862096
196.75333715861194
196.75034489179626
196.74937990562904
196.74964286363908
196.75179517585926
196.75904060246748
196.78091229177699
196.84286678790147
197.00761817159656
197.4170097531083
198.3630631088394
200.3872749481398
204.38360724247258
211.64959630766492
223.82291534758227
242.98414676055944
311.03614320356536
264.03333894282116
228.96105156999113
204.34711262117628
188.15398783774518
178.14836310465938
172.32594537953685
169.12416970820297
167.4540097324964
166.6242960584573
166.23019816251139
166.05055027425814
165.9716832878203
165.9382327247491
165.92449040275392
165.91903146026655
165.9170080732703
165.91658938123635
165.91760837350256
165.92175123959908
165.93474302425403
165.97253451278422
166.0758680460396
166.34064065812146
166.97346839282608
168.377960535265
171.26120907381113
176.72045596083495
186.2407594573913
201.54635639323135
223.82293432904652
271.8474213467388
228.96103457257453
197.51238813929595
175.80959316535223
161.72027536827392
153.10543556344575
148.13248968819815
145.4139568948992
144.00167999997603
143.301923565084
142.97003855733274
142.81883688813903
142.75245331095567
142.72428449017386
142.71271085365566
142.70813579293036
142.7065382459104
142.70656164037518
142.70862707238845
142.71578382590877
142.737254194043
142.7975100689
142.95635145800287
143.34820847111664
144.24894089444194
146.17030989152883
149.96093989414493
156.86068899070423
168.43013845592384
186.24074987109034
211.6496046424014
243.5195364113032
204.34709116206133
175.80959674701685
156.19804965357693
143.4888564896327
135.71578804561167
131.22058451942712
128.75612925260737
127.47129345495509
126.83219373824929
126.52785523226332
126.38865392156086
126.32730691090144
126.30118479832358
126.29042984872832
126.28620938584147
126.28488039057595
126.2854315478481
126.28898875130277
126.30038623017158
126.33327510638337
126.42229297931162
126.64843000255948
127.18565910398908
128.37458010555127
130.8171362783549
135.46255370421127
143.62520436859114
156.8607023822493
176.72046843382344
204.38359896449805
224.3727692874088
188.15397203090487
161.72026896286445
143.4889030245736
131.61808545585325
124.3191641709528
120.07510414931757
117.73599292065639
116.51046673256964
115.89811756700317
115.60534251318263
115.4709546801096
115.41154640723154
115.38618733946284
115.37573972593569
115.37169518365755
115.3706300145889
115.3718842789057
115.3774467330786
115.39431521876966
115.44121031609532
115.56362312837513
115.86348131499659
116.55050349609633
118.0179673502865
120.93196868964876
126.30000900456952
135.4625480357987
149.96093611651597
171.2612066821757
200.38728127258287
212.24103238036693
178.14838854372124
153.10546921020824
135.71576252059606
124.3191547694536
117.27025275904961
113.15032122378545
110.86957038775381
109.67017843057158
109.06903280541552
108.78088207004811
108.6483384479337
108.58964587477097
108.56456476232265
108.55424676623764
108.55033732940724
108.54959028601122
108.55174660300153
108.55979404064561
108.5831109938386
108.64563570906208
108.80321292838872
109.17610546776658
110.00240476353312
111.7125089361567
115.0110420153075
120.9319668589148
130.8171373580568
146.1703166649881
168.3779410572811
198.36305542394192
205.01509130964533
172.32596210838355
148.13252641923776
131.2205545141615
120.0750937886773
113.15031911732251
109.08839743705092
106.83344547728582
105.64501951055215
105.04835589149329
104.76197517064455
104.63011023486479
104.57167439836115
104.54669759098016
104.53645402799877
104.53268633808213
104.53232807068117
104.53556035766653
104.5464313808116
104.57668743973096
104.65508250491939
104.84626398452939
105.28469592760901
106.22817639157734
108.12959124516887
111.71250664795313
118.01796204700611
128.37457196043079
144.24893811805583
166.97346581530002
197.41701884301392
200.95575843537998
169.1241917919327
145.41390848034266
128.7561042003463
117.73599045192542
110.8695763453787
106.83344424206537
104.58937375271411
103.40535150865037
102.81041126304133
102.52468229257418
102.3930592796884
102.33471511704745
102.30978588848934
102.29960627612762
102.29600005463772
102.29608823463822
102.30050204576166
102.31431049696835
102.35138151068224
102.44445204644884
102.66482738031438
103.15667206127907
104.18968016834722
106.22817538436271
110.00240347469008
116.55050426195216
127.18565986544463
143.34819570540944
166.34062217547535
197.0076084886067
198.79676059475858
167.4540397382854
144.00163624085346
127.4712769680504
116.51046752096353
109.67017300033888
105.64501874218072
103.4053544816268
102.22303624705137
101.62873456651062
101.3432382933357
101.21169999363993
101.15339105627872
101.1284926983561
101.11837910187411
101.1149514800097
101.11551440038377
101.1211198413149
101.13772656309933
101.18091195369172
101.28635860342871
101.52984167444623
102.06133544245775
103.15667293825811
105.28469583869443
109.17610463608904
115.86348024529943
126.64842631517952
142.9563549231646
166.07587408981314
196.8428852005926
197.70527849221216
166.62423290123354
143.30190299128088
126.83219138696091
115.89812780286532
109.06903229470542
105.0483589235819
102.81041090782466
101.62873421084672
101.03466118064566
100.74924701063148
100.61773907270513
100.55944771585527
100.53457680905024
100.5245326449329
100.52128920917355
100.52231743620612
100.52902638847105
100.54807507205956
100.59627881715889
100.71126426030011
100.9714573650811
101.52984114018591
102.66482712577755
104.84626393965573
108.80321273102366
115.5636233127107
126.42227898457615
142.79749668898592
165.97251833453404
196.78090329291297
197.17863254664948
166.23015013470751
142.97002893753978
126.52786011418138
115.60533623926156
108.78088337850254
104.76197952112946
102.52468236819973
101.34323892200442
100.74924698225178
100.46386188644605
100.33236676503569
100.27408850717168
100.24924501675807
100.2392708426217
100.23620355860764
100.23765196213434
100.24530006405774
100.26630389260934
100.31828247420141
100.44000297148038
100.71126464920549
101.28635877624741
102.44445151735417
104.65508156946333
108.64563473233689
115.44120782956172
126.33327374222483
142.7372587157127
165.93475137700793
196.75902737797577
196.93502644587042
166.0505207786023
142.81883664789046
126.3886655353778
115.47094937129484
108.64834103188072
104.63010817263145
102.39305967729315
101.21169889036489
100.61773909005835
100.33236700537473
100.20088106684369
100.14261614678155
100.11780082345273
100.10789336077235
100.10498252861204
100.10678108443146
100.11516470126313
100.1376072563896
100.19219423259143
100.31828274109188
100.59627904136222
101.180911730908
102.35138251853914
104.57668923905183
108.58311502789573
115.39431177483998
126.30038150903243
142.71578475182332
165.92175258898837
196.7518090015142
196.82679952201298
165.97168107912665
142.75247084871395
126.32729783105722
115.41154833441267
108.58965380881654
104.5716739236505
102.33471693441521
101.15339047320815
100.55944800509718
100.27408836585948
100.14261607266724
100.08436898731712
100.0595842324631
100.0497383427507
100.04695792254742
100.04902704880838
100.05794235654757
100.0813603604588
100.13760709176768
100.26630383194241
100.54807539064673
101.1377257268497
102.31431014363147
104.54643063715137
108.55979257633655
115.37744548667786
126.28898741221333
142.70863292075538
165.91758621914255
196.74964617428836
196.78035956574564
165.93823344750894
142.72430644530337
126.30117578920263
115.38619003533721
108.5645604368273
104.54669774140653
102.30978459062234
101.12849234342161
100.53457727121835
100.24924482795552
100.11780080422645
100.05958421683334
100.03483782223921
100.02505075725693
100.02237544107825
100.02464075687976
100.03391276349221
100.0579423341821
100.11516474309373
100.2453000271041
100.5290265832673
101.1211197661963
102.3005030365126
104.53556239234659
108.55174460396357
115.37188128792586
126.28542756412698
142.7065623972989
165.91659307747491
196.74937945248567
196.7610970337157
165.9245095051725
142.71269916262446
126.29043021374687
115.3757507143621
108.55424551928364
104.53645727452475
102.29960589492029
101.1183790641095
100.52453254788684
100.23927082834084
100.10789341254387
100.0497383274191
100.02505076993829
100.01532844357484
100.01274080003924
100.01514378214246
100.02464074498634
100.04902701265385
100.10678102382107
100.23765197447487
100.52231729720731
101.11551363082049
102.29608788285773
104.5323271748967
108.54958966790491
115.37062941883742
126.28488007843978
142.7065244191492
165.91700450799587
196.75033716919827
196.75333745431743
165.91905252783073
142.7081238887221
126.28621140963725
115.37168723170429
108.55033696041956
104.53268359435702
102.29600012615464
101.11495186833118
100.52128908229064
100.23620358123057
100.10498240118753
100.04695792447264
100.02237542062497
100.01274080005295
100.01023760580478
100.01274080483215
100.02237542792315
100.04695796396321
100.10498245782179
100.23620350474576
100.52128943736531
101.11495146109311
102.29600118897294
104.53268517308219
108.55033556679916
115.3716934816514
126.28620573250541
142.70814024816536
165.91902246611716
196.7533398193955
196.7503648826476
165.91698480054112
142.7065437173039
126.28489550335709
115.37062729870487
108.54959525327256
104.53232725407261
102.29608912116491
101.11551362462782
100.52231765801442
100.23765219240772
100.10678101581276
100.04902709689021
100.02464074983754
100.01514378670524
100.01274080860895
100.01532845152158
100.02505074492922
100.04973834083941
100.10789332018916
100.23927066085152
100.52453253564664
101.11837839225115
102.29960576755869
104.53645388502888
108.55424656273169
115.37574012189717
126.2904156285809
142.71270832068507
165.92447497449402
196.7610885740679
196.74941090084994
165.91657179803306
142.70657084103547
126.28541739445866
115.37188327847885
108.5517415254404
104.53556028252065
102.30050373483523
101.1211190195628
100.52902673376468
100.24529990042538
100.11516465489035
100.05794231671165
100.03391275169798
100.02464076544773
100.02237544445127
100.02505076013563
100.03483783878339
100.05958423989615
100.11780076428298
100.2492449843116
100.53457703958966
101.12849283345277
102.3097853041414
104.54669669135158
108.56456355549072
115.38618493558889
126.30118380506134
142.72427691646544
165.93822422174748
196.7803798699612
196.74961066449617
165.9175986288781
142.7086426579325
126.28897506536099
115.37744859367358
108.55978909778007
104.54643090543499
102.31430904021343
101.13772591853626
100.54807558350257
100.26630368580325
100.1376072179977
100.08136033848645
100.05794234365743
100.04902704693818
100.04695792085947
100.04973833506415
100.0595842474018
100.08436896403731
100.14261604478459
100.27408846341233
100.55944789894428
101.15339085787204
102.33471593126374
104.57167604608827
108.58964976780254
115.41154262225405
126.32730891588315
142.75245291779683
165.97168307184378
196.82683347484473
196.75178822132585
165.92176330998532
142.7157681907583
126.30038369299737
115.39430612753598
108.58311117233472
104.57669044629611
102.35138109099859
101.18091204520486
100.59627878891887
100.3182825602605
100.1921941942829
100.1376072267492
100.11516472441227
100.10678109541442
100.10498253024335
100.1078933666449
100.11780083141488
100.14261612504306
100.20088113184907
100.3323668790198
100.61773929581008
101.21169915218026
102.39305890097287
104.6301094675721
108.64833706537297
115.47095333109844
126.38864359486016
142.81882959335644
166.0505408577484
196.93508392039303
196.75903613618758
165.93476026714765
142.737238727905
126.33327755662435
115.44120183694217
108.64563519618704
104.65507954776871
102.44445192961544
101.28635918795591
100.71126436029152
100.44000325119816
100.31828244543846
100.26630386836558
100.24530005597155
100.23765194754004
100.2362035605386
100.23927086255306
100.24924500034291
100.27408850079463
100.33236680497221
100.46386181667552
100.74924713203522
101.34323830407517
102.52468335148158
104.76197689341836
108.78087971242509
115.60534354850428
126.52785021265609
142.97003817279932
166.23019818047325
197.17857291030893
196.78090792008783
165.97249120417797
142.79749893046224
126.42226996560183
115.56361710385615
108.80321490274085
104.84626146925933
102.66482778296363
101.52984068890187
100.97145702589197
100.71126418212944
100.59627874332271
100.54807512688497
100.52902644065321
100.52231744420476
100.52128921001301
100.52453264418756
100.53457679410226
100.55944774405214
100.61773901243403
100.74924711259828
101.03466126670135
101.6287337748063
102.81041157478792
105.04835677691166
109.06903552287203
115.8981158705617
126.83219265142583
143.30193137532427
166.62430682124022
197.70526456292922
196.84291206532924
166.0758642476159
142.9563736508187
126.648426522334
115.8634874435122
109.17610531399198
105.28469938713803
103.15667567501156
102.06133637879455
101.52984350551361
101.28635975829229
101.1809130274647
101.13772762989811
101.12112086643552
101.11551549578091
101.11495261886098
101.11838015053904
101.12849379802884
101.1533921425152
101.21170097734438
101.34323933266852
101.62873509185553
102.22303735717865
103.4053532601342
105.6450165181767
109.67017675530177
116.5104604043977
127.47128304924927
144.00167185153322
167.453982565068
198.79673847399064
197.00760120639723
166.34064590816664
143.34819695900245
127.18566059056802
116.55051479409123
110.00240434057775
106.2281801919457
104.18968226511878
103.15667392701513
102.66482948543413
102.44445403499242
102.35138376898722
102.31431281255905
102.30050420299361
102.29609035032225
102.29600215423642
102.2996083749796
102.30978801669309
102.33471720077118
102.3930614615971
102.5246843124619
102.81041297661308
103.40535361043247
104.58937403686372
106.83344726512748
110.86956969645823
117.73599135070087
128.7561221828239
145.41395462387965
169.12416317364412
200.95574330392415
197.41700265743594
166.97348435368127
144.24893344183963
128.374579661809
118.01796104212856
111.71251139254531
108.12959534851959
106.22817769647645
105.28469906221487
104.8462661198281
104.65508443901956
104.57668932845473
104.54643313551861
104.53556233906123
104.53233018582621
104.53268821158227
104.53645608331202
104.54669958595855
104.5716762992138
104.63011223853866
104.76197698502672
105.0483580824287
105.64502066271554
106.83344679077972
109.08840278363937
113.15031906132911
120.07510340705915
131.2205848765033
148.13248616978137
172.32594208036235
205.0150933489744
198.3630630012208
168.3779258059668
146.17030536118978
130.8171437664837
120.93196158209214
115.01104442784215
111.71250804519477
110.00240399068711
109.17610526786211
108.80321256692866
108.64563601234937
108.58311158005284
108.5597942285001
108.55174666604906
108.54959028959095
108.55033739112402
108.55424686729586
108.56456487592679
108.58964619114424
108.64833848465882
108.78088218654878
109.06903332158717
109.67017824058138
110.86957228083551
113.15031844476123
117.27025571642022
124.31916997107474
135.71579706213194
153.105446885601
178.14836976296323
212.2410354781756
200.38728009159775
171.26118185830776
149.96093183046338
135.462534027555
126.30000521506331
120.93196516619534
118.01796005795534
116.55049949109528
115.86347611410774
115.56361753708997
115.4412045842223
115.39430912790645
115.37744118913224
115.3718790422588
115.37062425880914
115.37168985596175
115.37573423828053
115.38618169829243
115.41154092497982
115.47094919023148
115.60533721643645
115.89811173721714
116.5104617913354
117.73599033420486
120.07509865721798
124.31916532177222
131.618099990639
143.48886519465546
161.72024134965702
188.15395500879745
224.3727730276958
204.38360945868553
176.72048037221978
156.8607343336493
143.62521847574092
135.46257640888922
130.81715331796119
128.3745967113563
127.1856761116969
126.64844650385675
126.42231066224096
126.33329338516162
126.300403735014
126.28900596835905
126.28544861139962
126.28489767142294
126.28622668255578
126.29044719656753
126.30120248822746
126.32732401006916
126.38867128060633
126.52787277834074
126.83221060608396
127.4713110043318
128.75614347546903
131.22060099831833
135.71580987689663
143.48888637988736
156.19802967365362
175.8095675832419
204.34706474463067
243.51954169369878
211.64961424462092
186.240781553794
168.43015359922242
156.8607141082469
149.96096364096076
146.17032753385575
144.24896247641797
143.34822848937847
142.956370817332
142.797529111644
142.73727244807742
142.7158029903657
142.70864675565468
142.7065805496235
142.70655787888379
142.7081551206184
142.71272993395212
142.72430370994294
142.75247262218375
142.8188561394801
142.97005718064025
143.30194321932726
144.0017001665489
145.41397384426224
148.13250923337642
153.1054599971063
161.72025538659477
175.80957137810557
197.51236000364943
228.96100789884127
271.84742375106873
223.82293657973162
201.5463798085404
186.2407625799206
176.72046967275523
171.26121658128255
168.377967804198
166.97347625832342
166.34064795948518
166.07587729849132
165.9725444470448
165.93475173314016
165.92175958686056
165.91761649355072
165.9165980386349
165.91701662492142
165.91904009941067
165.92449947919823
165.93824091853955
165.97169200896872
166.05055910054844
166.23020649261022
166.624304649569
167.45401642879563
169.12417814495598
172.32595684555068
178.14837915305546
188.15396199425598
204.3470740066531
228.96100278041268
264.03329086074365
311.0360561048244
242.9841630950884
223.822910067497
211.64960198927525
204.38361199371022
200.38727254846566
198.3630654644746
197.41701004305133
197.00761912232034
196.84286733148068
196.7809105961882
196.75904047458414
196.75179543237329
196.7496428824397
196.74938046524946
196.75034507067946
196.75333734814288
196.76109622425625
196.78037937792365
196.8268238088744
196.93508295484875
197.17857667709856
197.7052486246849
198.79675510766896
200.95574633275174
205.01508878863422
212.24103100657817
224.37277015770957
243.51953488065564
271.8474016291903
311.036038222242
360.722514265645
