# vtk DataFile Version 2.0
Unstructured Grid Example
ASCII
DATASET UNSTRUCTURED_GRID

POINTS 961 float
0.150000006 -0.00839745998 0
0.146666661 -0.00839745998 0
0.143333331 -0.00839745998 0
0.140000001 -0.00839745998 0
0.13666667 -0.00839745998 0
0.13333334 -0.00839745998 0
0.129999995 -0.00839745998 0
0.126666665 -0.00839745998 0
0.123333335 -0.00839745998 0
0.119999997 -0.00839745998 0
0.116666667 -0.00839745998 0
0.113333337 -0.00839745998 0
0.109999999 -0.00839745998 0
0.106666669 -0.00839745998 0
0.103333332 -0.00839745998 0
0.100000001 -0.00839745998 0
0.0966666639 -0.00839745998 0
0.0933333337 -0.00839745998 0
0.0900000036 -0.00839745998 0
0.086666666 -0.00839745998 0
0.0833333358 -0.00839745998 0
0.0799999982 -0.00839745998 0
0.0766666681 -0.00839745998 0
0.0733333305 -0.00839745998 0
0.0700000003 -0.00839745998 0
0.0666666701 -0.00839745998 0
0.0633333325 -0.00839745998 0
0.0599999987 -0.00839745998 0
0.0566666685 -0.00839745998 0
0.0533333346 -0.00839745998 0
0.0500000007 -0.00839745998 0
0.148333326 -0.0112842107 0
0.144999996 -0.0112842107 0
0.141666666 -0.0112842107 0
0.138333336 -0.0112842107 0
0.135000005 -0.0112842107 0
0.13166666 -0.0112842107 0
0.12833333 -0.0112842107 0
0.125 -0.0112842107 0
0.12166667 -0.0112842107 0
0.118333332 -0.0112842107 0
0.115000002 -0.0112842107 0
0.111666664 -0.0112842107 0
0.108333334 -0.0112842107 0
0.104999997 -0.0112842107 0
0.101666667 -0.0112842107 0
0.0983333364 -0.0112842107 0
0.0949999988 -0.0112842107 0
0.0916666687 -0.0112842107 0
0.088333331 -0.0112842107 0
0.0850000009 -0.0112842107 0
0.0816666633 -0.0112842107 0
0.0783333331 -0.0112842107 0
0.075000003 -0.0112842107 0
0.0716666654 -0.0112842107 0
0.0683333352 -0.0112842107 0
0.0649999976 -0.0112842107 0
0.0616666675 -0.0112842107 0
0.0583333336 -0.0112842107 0
0.0549999997 -0.0112842107 0
0.0516666658 -0.0112842107 0
0.0483333319 -0.0112842107 0
0.146666661 -0.0141709624 0
0.143333331 -0.0141709624 0
0.140000001 -0.0141709624 0
0.13666667 -0.0141709624 0
0.13333334 -0.0141709624 0
0.129999995 -0.0141709624 0
0.126666665 -0.0141709624 0
0.123333335 -0.0141709624 0
0.119999997 -0.0141709624 0
0.116666667 -0.0141709624 0
0.113333337 -0.0141709624 0
0.109999999 -0.0141709624 0
0.106666669 -0.0141709624 0
0.103333332 -0.0141709624 0
0.100000001 -0.0141709624 0
0.0966666639 -0.0141709624 0
0.0933333337 -0.0141709624 0
0.0900000036 -0.0141709624 0
0.086666666 -0.0141709624 0
0.0833333358 -0.0141709624 0
0.0799999982 -0.0141709624 0
0.0766666681 -0.0141709624 0
0.0733333305 -0.0141709624 0
0.0700000003 -0.0141709624 0
0.0666666701 -0.0141709624 0
0.0633333325 -0.0141709624 0
0.0599999987 -0.0141709624 0
0.0566666685 -0.0141709624 0
0.0533333346 -0.0141709624 0
0.0500000007 -0.0141709624 0
0.0466666669 -0.0141709624 0
0.144999996 -0.0170577131 0
0.141666666 -0.0170577131 0
0.138333336 -0.0170577131 0
0.135000005 -0.0170577131 0
0.13166666 -0.0170577131 0
0.12833333 -0.0170577131 0
0.125 -0.0170577131 0
0.12166667 -0.0170577131 0
0.118333332 -0.0170577131 0
0.115000002 -0.0170577131 0
0.111666664 -0.0170577131 0
0.108333334 -0.0170577131 0
0.104999997 -0.0170577131 0
0.101666667 -0.0170577131 0
0.0983333364 -0.0170577131 0
0.0949999988 -0.0170577131 0
0.0916666687 -0.0170577131 0
0.088333331 -0.0170577131 0
0.0850000009 -0.0170577131 0
0.0816666633 -0.0170577131 0
0.0783333331 -0.0170577131 0
0.075000003 -0.0170577131 0
0.0716666654 -0.0170577131 0
0.0683333352 -0.0170577131 0
0.0649999976 -0.0170577131 0
0.0616666675 -0.0170577131 0
0.0583333336 -0.0170577131 0
0.0549999997 -0.0170577131 0
0.0516666658 -0.0170577131 0
0.0483333319 -0.0170577131 0
0.0450000018 -0.0170577131 0
0.143333331 -0.0199444648 0
0.140000001 -0.0199444648 0
0.13666667 -0.0199444648 0
0.13333334 -0.0199444648 0
0.129999995 -0.0199444648 0
0.126666665 -0.0199444648 0
0.123333335 -0.0199444648 0
0.119999997 -0.0199444648 0
0.116666667 -0.0199444648 0
0.113333337 -0.0199444648 0
0.109999999 -0.0199444648 0
0.106666669 -0.0199444648 0
0.103333332 -0.0199444648 0
0.100000001 -0.0199444648 0
0.0966666639 -0.0199444648 0
0.0933333337 -0.0199444648 0
0.0900000036 -0.0199444648 0
0.086666666 -0.0199444648 0
0.0833333358 -0.0199444648 0
0.0799999982 -0.0199444648 0
0.0766666681 -0.0199444648 0
0.0733333305 -0.0199444648 0
0.0700000003 -0.0199444648 0
0.0666666701 -0.0199444648 0
0.0633333325 -0.0199444648 0
0.0599999987 -0.0199444648 0
0.0566666685 -0.0199444648 0
0.0533333346 -0.0199444648 0
0.0500000007 -0.0199444648 0
0.0466666669 -0.0199444648 0
0.043333333 -0.0199444648 0
0.141666666 -0.0228312165 0
0.138333336 -0.0228312165 0
0.135000005 -0.0228312165 0
0.13166666 -0.0228312165 0
0.12833333 -0.0228312165 0
0.125 -0.0228312165 0
0.12166667 -0.0228312165 0
0.118333332 -0.0228312165 0
0.115000002 -0.0228312165 0
0.111666664 -0.0228312165 0
0.108333334 -0.0228312165 0
0.104999997 -0.0228312165 0
0.101666667 -0.0228312165 0
0.0983333364 -0.0228312165 0
0.0949999988 -0.0228312165 0
0.0916666687 -0.0228312165 0
0.088333331 -0.0228312165 0
0.0850000009 -0.0228312165 0
0.0816666633 -0.0228312165 0
0.0783333331 -0.0228312165 0
0.075000003 -0.0228312165 0
0.0716666654 -0.0228312165 0
0.0683333352 -0.0228312165 0
0.0649999976 -0.0228312165 0
0.0616666675 -0.0228312165 0
0.0583333336 -0.0228312165 0
0.0549999997 -0.0228312165 0
0.0516666658 -0.0228312165 0
0.0483333319 -0.0228312165 0
0.0450000018 -0.0228312165 0
0.0416666679 -0.0228312165 0
0.140000001 -0.0257179681 0
0.13666667 -0.0257179681 0
0.13333334 -0.0257179681 0
0.129999995 -0.0257179681 0
0.126666665 -0.0257179681 0
0.123333335 -0.0257179681 0
0.119999997 -0.0257179681 0
0.116666667 -0.0257179681 0
0.113333337 -0.0257179681 0
0.109999999 -0.0257179681 0
0.106666669 -0.0257179681 0
0.103333332 -0.0257179681 0
0.100000001 -0.0257179681 0
0.0966666639 -0.0257179681 0
0.0933333337 -0.0257179681 0
0.0900000036 -0.0257179681 0
0.086666666 -0.0257179681 0
0.0833333358 -0.0257179681 0
0.0799999982 -0.0257179681 0
0.0766666681 -0.0257179681 0
0.0733333305 -0.0257179681 0
0.0700000003 -0.0257179681 0
0.0666666701 -0.0257179681 0
0.0633333325 -0.0257179681 0
0.0599999987 -0.0257179681 0
0.0566666685 -0.0257179681 0
0.0533333346 -0.0257179681 0
0.0500000007 -0.0257179681 0
0.0466666669 -0.0257179681 0
0.043333333 -0.0257179681 0
0.0399999991 -0.0257179681 0
0.138333336 -0.0286047198 0
0.135000005 -0.0286047198 0
0.13166666 -0.0286047198 0
0.12833333 -0.0286047198 0
0.125 -0.0286047198 0
0.12166667 -0.0286047198 0
0.118333332 -0.0286047198 0
0.115000002 -0.0286047198 0
0.111666664 -0.0286047198 0
0.108333334 -0.0286047198 0
0.104999997 -0.0286047198 0
0.101666667 -0.0286047198 0
0.0983333364 -0.0286047198 0
0.0949999988 -0.0286047198 0
0.0916666687 -0.0286047198 0
0.088333331 -0.0286047198 0
0.0850000009 -0.0286047198 0
0.0816666633 -0.0286047198 0
0.0783333331 -0.0286047198 0
0.075000003 -0.0286047198 0
0.0716666654 -0.0286047198 0
0.0683333352 -0.0286047198 0
0.0649999976 -0.0286047198 0
0.0616666675 -0.0286047198 0
0.0583333336 -0.0286047198 0
0.0549999997 -0.0286047198 0
0.0516666658 -0.0286047198 0
0.0483333319 -0.0286047198 0
0.0450000018 -0.0286047198 0
0.0416666679 -0.0286047198 0
0.038333334 -0.0286047198 0
0.13666667 -0.0314914696 0
0.13333334 -0.0314914696 0
0.129999995 -0.0314914696 0
0.126666665 -0.0314914696 0
0.123333335 -0.0314914696 0
0.119999997 -0.0314914696 0
0.116666667 -0.0314914696 0
0.113333337 -0.0314914696 0
0.109999999 -0.0314914696 0
0.106666669 -0.0314914696 0
0.103333332 -0.0314914696 0
0.100000001 -0.0314914696 0
0.0966666639 -0.0314914696 0
0.0933333337 -0.0314914696 0
0.0900000036 -0.0314914696 0
0.086666666 -0.0314914696 0
0.0833333358 -0.0314914696 0
0.0799999982 -0.0314914696 0
0.0766666681 -0.0314914696 0
0.0733333305 -0.0314914696 0
0.0700000003 -0.0314914696 0
0.0666666701 -0.0314914696 0
0.0633333325 -0.0314914696 0
0.0599999987 -0.0314914696 0
0.0566666685 -0.0314914696 0
0.0533333346 -0.0314914696 0
0.0500000007 -0.0314914696 0
0.0466666669 -0.0314914696 0
0.043333333 -0.0314914696 0
0.0399999991 -0.0314914696 0
0.0366666652 -0.0314914696 0
0.135000005 -0.0343782231 0
0.13166666 -0.0343782231 0
0.12833333 -0.0343782231 0
0.125 -0.0343782231 0
0.12166667 -0.0343782231 0
0.118333332 -0.0343782231 0
0.115000002 -0.0343782231 0
0.111666664 -0.0343782231 0
0.108333334 -0.0343782231 0
0.104999997 -0.0343782231 0
0.101666667 -0.0343782231 0
0.0983333364 -0.0343782231 0
0.0949999988 -0.0343782231 0
0.0916666687 -0.0343782231 0
0.088333331 -0.0343782231 0
0.0850000009 -0.0343782231 0
0.0816666633 -0.0343782231 0
0.0783333331 -0.0343782231 0
0.075000003 -0.0343782231 0
0.0716666654 -0.0343782231 0
0.0683333352 -0.0343782231 0
0.0649999976 -0.0343782231 0
0.0616666675 -0.0343782231 0
0.0583333336 -0.0343782231 0
0.0549999997 -0.0343782231 0
0.0516666658 -0.0343782231 0
0.0483333319 -0.0343782231 0
0.0450000018 -0.0343782231 0
0.0416666679 -0.0343782231 0
0.038333334 -0.0343782231 0
0.0350000001 -0.0343782231 0
0.13333334 -0.0372649729 0
0.129999995 -0.0372649729 0
0.126666665 -0.0372649729 0
0.123333335 -0.0372649729 0
0.119999997 -0.0372649729 0
0.116666667 -0.0372649729 0
0.113333337 -0.0372649729 0
0.109999999 -0.0372649729 0
0.106666669 -0.0372649729 0
0.103333332 -0.0372649729 0
0.100000001 -0.0372649729 0
0.0966666639 -0.0372649729 0
0.0933333337 -0.0372649729 0
0.0900000036 -0.0372649729 0
0.086666666 -0.0372649729 0
0.0833333358 -0.0372649729 0
0.0799999982 -0.0372649729 0
0.0766666681 -0.0372649729 0
0.0733333305 -0.0372649729 0
0.0700000003 -0.0372649729 0
0.0666666701 -0.0372649729 0
0.0633333325 -0.0372649729 0
0.0599999987 -0.0372649729 0
0.0566666685 -0.0372649729 0
0.0533333346 -0.0372649729 0
0.0500000007 -0.0372649729 0
0.0466666669 -0.0372649729 0
0.043333333 -0.0372649729 0
0.0399999991 -0.0372649729 0
0.0366666652 -0.0372649729 0
0.0333333351 -0.0372649729 0
0.13166666 -0.0401517227 0
0.12833333 -0.0401517227 0
0.125 -0.0401517227 0
0.12166667 -0.0401517227 0
0.118333332 -0.0401517227 0
0.115000002 -0.0401517227 0
0.111666664 -0.0401517227 0
[...]
POINT_DATA 961
SCALARS Temp float 1
LOOKUP_TABLE default
166.93573816057142
137.21842496976421
128.30799115316935
126.29637264284715
125.83907034050625
125.7353574276893
125.71180029873379
125.70643417978442
125.70521463448608
125.70493677344534
125.70487036188598
125.70485946040245
125.70485623401264
125.70485508850926
125.70485782649929
125.70485431131432
125.70485455706608
125.70485186280854
125.70485511954683
125.70485489976438
125.7048549316163
125.70485792709032
125.70485528283392
125.7048615375011
125.70490199613765
125.70522576174643
125.70763286846895
125.72595678820397
125.87164736890819
127.02652393875744
140.6676627063043
137.21843705281515
112.70348097869291
107.4189225090961
106.21581012019286
105.94308497092211
105.88111386420294
105.86701299292928
105.86380570357558
105.86307491832532
105.86290818051776
105.86287180667964
105.86286169878265
105.86285944448966
105.86285949356771
105.86285720175623
105.86285902574431
105.86285902438458
105.86286048268026
105.86285910590463
105.86285904625954
105.86285947626065
105.86285756543336
105.86286177046436
105.86287922000909
105.8630081125871
105.86394264098587
105.87087440022061
105.92309984438296
106.31605022659996
109.5823546572503
127.02652966525223
128.30798756020312
107.41892588672513
102.71553666147881
101.65071206622505
101.40860288885392
101.35348572264166
101.34092895873934
101.33806750064335
101.33741468058761
101.33726568726539
101.33723206212395
101.33722425267453
101.33722251737996
101.33722193469254
101.33722225142336
101.33722190155248
101.3372217546342
101.33722202530197
101.33722198621666
101.33722203800771
101.33722191524765
101.33722325377153
101.33722932414686
101.33727430926851
101.33759606703603
101.3398811317064
101.35608131832615
101.46884907933142
102.24853688380882
106.31604435920889
125.87164508672154
126.29637177335734
106.2158153396784
101.65071423413393
100.61160775540587
100.37488855124785
100.32093337951113
100.30863230853288
100.30582726406058
100.30518755229684
100.30504176016798
100.30500840489313
100.30500080538856
100.3049990532303
100.3049986213514
100.30499859627501
100.30499856733839
100.3049986508987
100.30499857888438
100.30499858408112
100.30499859021005
100.30499886049293
100.30500106522388
100.30501580997142
100.30511730538379
100.30580715407852
100.31042662028887
100.34037786007022
100.52552578017597
101.46884973739752
105.92310459728802
125.72595683250071
125.839077421314
105.9430871561802
101.40860487074703
100.37488984093994
100.13919158450597
100.08544410036076
100.07318667632667
100.07039113485601
100.06975354257597
100.0696081395825
100.0695749689044
100.0695673987798
100.06956567388667
100.06956529958568
100.06956519088261
100.06956516427223
100.06956517443649
100.06956517351769
100.06956518115761
100.06956527790749
100.06956597599068
100.06957049372846
100.0696005599852
100.0697967316921
100.07104449555952
100.07866360277735
100.12238567262254
100.34037755245261
101.35608140470018
105.87087389601452
125.70763520901006
125.73535770040884
105.8811189971892
101.35348804325585
100.32093242425293
100.08544381695926
100.03173563809824
100.01948606799644
100.01669218573242
100.01605496301939
100.01590961812443
100.01587646694429
100.0158689062121
100.0158671798193
100.01586678960652
100.01586669956359
100.01586668388244
100.01586667616931
100.01586667842344
100.01586670830652
100.0158669104491
100.01586824224391
100.01587675758897
100.01593016709113
100.01625487601953
100.01814146369306
100.02841309615513
100.0786635838227
100.3104267500828
101.33988238033646
105.8639358900347
125.70521896679419
125.7117945353556
105.86701876359197
101.34093305138687
100.30863036576308
100.07318637964528
100.01948605017947
100.00723793979978
100.00444436356939
100.0038071969067
100.00366186870676
100.00362872188482
100.00362116171912
100.00361943833603
100.00361904406064
100.00361895408219
100.00361893458934
100.00361893104005
100.0036189389639
100.0036189978362
100.0036193736976
100.00362169934374
100.003635774463
100.00371804555152
100.00417676977165
100.00657897865608
100.01814145409804
100.07104444685794
100.30580699964422
101.33759509180986
105.86300571133242
125.70490889736884
125.70643907754628
105.86380873412686
101.33806092983579
100.30582554779622
100.07039101091164
100.01669222379165
100.0044443633322
100.0016508418337
100.00101368332805
100.00086835826376
100.00083521201466
100.00082765181133
100.0008259276386
100.00082553433862
100.00082544494212
100.00082542467504
100.00082542260698
100.00082543816467
100.0008255403863
100.00082615834071
100.00082977666716
100.00085021053975
100.00096031432584
100.00151994790887
100.00417676778403
100.01625487623552
100.06979673909763
100.305117265267
101.33727307137723
105.86287194695483
125.70485410631609
125.70520734140334
105.8630813831682
101.33740534840547
100.30518663784936
100.06975359443516
100.01605496090006
100.00380720063424
100.0010136864716
100.0003765290215
100.00023120466358
100.00019805844258
100.00019049841546
100.00018877403393
100.00018838074507
100.0001882911958
100.00018827146562
100.00018827134915
100.00018829764942
100.00018845783939
100.00018936983848
100.000194368374
100.00022054345422
100.00035049699027
100.00096031529768
100.00371804440611
100.01593015901442
100.06960055460709
100.30501556619204
101.33722935781023
105.86286290221199
125.70486340885577
125.70492350961808
105.86287621524242
101.3372623246023
100.30504186868124
100.06960841231454
100.0159096302109
100.00366187815419
100.00086835892347
100.00023120456795
100.00008588001677
100.00005273392183
100.00004517384653
100.00004344951348
100.00004305626744
100.00004296675611
100.00004294751457
100.00004295000018
100.00004298979151
100.00004321589554
100.00004442418994
100.00005060141646
100.0000806962979
100.00022054326016
100.0008502100162
100.00363577487039
100.01587675844848
100.06957050311956
100.30500050534002
101.33722145069027
105.86285221035888
125.70484806868866
125.70489360986029
105.86284966083556
101.3372325052089
100.3050090521071
100.0695750110769
100.01587648492965
100.00362873349404
100.0008352115555
100.00019805861679
100.00005273389984
100.00001958784686
100.00001202775512
100.00001030343344
100.00000991019876
100.00000982081544
100.00000980219278
100.00000980777791
100.00000986217319
100.00001015129494
100.00001160072817
100.00001855432308
100.00005060145885
100.00019436845706
100.00082977630292
100.00362169773388
100.01586823727982
100.06956589525834
100.30499876667952
101.33722227792829
105.86286444514181
125.70485196004341
125.70484434994167
105.86285869357764
101.3372264039318
100.30500177124783
100.06956735674149
100.01586892029522
100.0036211581969
100.0008276516393
100.00019049796109
100.00004517384755
100.0000120277715
100.00000446767044
100.00000274335875
100.0000023501509
100.00000226091444
100.00000224299575
100.00000225177742
100.0000023194857
100.00000265782077
100.00000426139972
100.00001160075031
100.00004442423348
100.00018936971176
100.0008261589497
100.00361937594792
100.01586692939142
100.06956522970259
100.30499840454048
101.33722256990717
105.862858674473
125.70486238986561
125.7048579370189
105.86286648974105
101.33722563602883
100.30499901878976
100.06956567528644
100.01586721782866
100.0036194335867
100.00082592912426
100.00018877372179
100.00004344955961
100.00001030342345
100.00000274335457
100.00000101905374
100.00000062588629
100.00000053681492
100.00000051959628
100.00000053118018
100.00000060891563
100.00000097791659
100.00000265781497
100.0000101512911
100.0000432159498
100.0001884574902
100.00082554013075
100.00361899696526
100.01586669697708
100.06956516268576
100.30499857913193
101.33722288598551
105.86284898444353
125.70485083361588
125.70485339977407
105.86286283945446
101.33722556582076
100.30499807135763
100.0695652633495
100.0158667676927
100.00361904295114
100.00082553352172
100.00018838058377
100.00004305634573
100.0000099101782
100.00000235014868
100.00000062588592
100.00000023279
100.00000014389974
100.00000012729114
100.000000140931
100.00000022478656
100.00000060891503
100.00000231948732
100.00000986216854
100.000042989814
100.00018829760123
100.0008254389482
100.00361894311843
100.01586666943903
100.06956514215406
100.30499845880153
101.33722111178685
105.86286087080691
125.70485364671516
125.70485923488181
105.86286506092472
101.33722047949114
100.30499822221991
100.06956533236614
100.01586668615631
100.00361896179349
100.0008254441469
100.00018829112649
100.00004296674143
100.00000982080944
100.0000022609168
100.0000005368145
100.00000014389992
100.00000005525295
100.00000003914275
100.00000005405067
100.0000001409308
100.00000053117934
100.00000225177455
100.0000098077799
100.0000429499811
100.0001882710773
100.00082542248339
100.00361892863721
100.01586667342598
100.06956516164391
100.30499852385526
101.33722036837605
105.86285814923659
125.70485303727698
125.70485079012371
105.86286471276442
101.33721850819158
100.3049985119411
100.06956510581148
100.01586667819461
100.00361893036548
100.00082542441713
100.00018827159175
100.00004294747006
100.00000980219285
100.00000224299099
100.00000051959621
100.0000001272909
100.00000003914275
100.00000002351979
100.00000003914278
100.00000012729086
100.00000051959728
100.00000224299296
100.00000980218582
100.00004294755195
100.00018827145317
100.0008254256616
100.00361893238912
100.01586667169225
100.06956514485574
100.30499833687924
101.33722296383337
105.8628561539642
125.70485711248423
125.7048501027392
105.86284582197942
101.33722189501417
100.30499936099139
100.06956512657247
100.01586670456363
100.00361892674243
100.00082542294703
100.00018827106352
100.00004295002522
100.00000980779946
100.0000022517737
100.00000053118109
100.00000014093081
100.00000005405064
100.00000003914283
100.00000005525297
100.00000014389957
100.00000053681485
100.00000226091257
100.00000982080016
100.00004296674214
100.00018829096379
100.00082544420005
100.00361895378244
100.01586669850764
100.0695652104522
100.30499814901047
101.33722184708402
105.8628536387211
125.70485065915841
125.70486658601082
105.86285125548268
101.33722357652643
100.30499832607646
100.0695651395198
100.01586665123227
100.00361893661375
100.00082543958048
100.00018829727031
100.00004298985006
100.0000098621607
100.00000231948297
100.00000060891493
100.00000022478642
100.00000014093104
100.00000012729116
100.00000014389981
100.00000023279027
100.00000062588649
100.00000235014704
100.0000099101954
100.00004305629984
100.00018838079423
100.00082553384993
100.0036190424154
100.01586678690191
100.0695652437768
100.30499872003057
101.3372210786307
105.86285625296425
125.70485440328407
125.7048461409421
105.86285903001813
101.33722511386893
100.30499794106281
100.06956518762864
100.0158666709747
100.00361899636562
100.00082553953037
100.00018845754649
100.00004321600139
100.0000101512789
100.00000265782052
100.00000097791622
100.00000060891541
100.00000053118006
100.00000051959623
100.00000053681504
100.0000006258866
100.00000101905316
100.00000274335419
100.00001030342987
100.00004344955008
100.00018877389488
100.00082592825417
100.00361944112979
100.01586720321987
100.06956563736902
100.30499908831257
101.3372223336428
105.86285826544317
125.70485813927435
125.70485809962061
105.8628653130111
101.33722071278207
100.30499815177559
100.06956514560653
100.0158669067648
100.00361937999449
100.00082615766642
100.0001893698911
100.00004442420457
100.00001160073282
100.00000426139958
100.00000265782003
100.00000231948586
100.00000225177833
100.00000224299585
100.00000226091446
100.00000235015123
100.00000274335805
100.00000446767392
100.00001202775947
100.00004517389638
100.00019049807405
100.00082765166913
100.00362116143087
100.01586889722972
100.06956740075712
100.30500036282602
101.3372231723236
105.86285655693122
125.70485623427167
125.70485387929486
105.8628666719462
101.33721824812557
100.3049989070168
100.0695658181352
100.01586824028152
100.00362169553495
100.00082977657014
100.00019436869282
100.00005060141082
100.00001855434795
100.00001160073026
100.00001015129456
100.00000986217125
100.00000980777712
100.00000980219319
100.00000982081822
100.0000099101978
100.0000103034338
100.00001202775664
100.00001958784391
100.00005273394558
100.0001980584167
100.00083521287672
100.00362872614511
100.0158764560251
100.06957495854913
100.30500811008585
101.33723151407467
105.86287027163878
125.7048703761345
125.70483994837832
105.86283853198181
101.33722092136775
100.30500037203413
100.0695704288602
100.01587677680428
100.00363576913142
100.00085021083143
100.00022054316678
100.00008069623208
100.00005060141122
100.00004442418434
100.00004321589529
100.00004298981003
100.00004295000198
100.00004294751291
100.00004296676065
100.00004305626092
100.00004344951367
100.00004517384448
100.00005273393946
100.00008588003658
100.00023120447916
100.0008683588783
100.00366186933557
100.01590963084897
100.06960809287251
100.3050415539706
101.33726658725953
105.86291111641297
125.70494564738478
125.70487285446832
105.8628558407933
101.33723254185482
100.305015584987
100.06960062301519
100.01593016198467
100.00371804916736
100.00096031749281
100.0003504973584
100.00022054400193
100.00019436887435
100.0001893702584
100.00018845822225
100.00018829805563
100.00018827177799
100.00018827193858
100.00018829159926
100.00018838117393
100.0001887744611
100.00019049881783
100.00019805889244
100.00023120498336
100.00037652943136
100.00101368386659
100.00380719036984
100.01605494308205
100.06975343946752
100.30518712741794
101.33741384037361
105.863064706769
125.70520506088404
125.70485725980183
105.86288209181554
101.33727372286377
100.30511711079443
100.06979686679294
100.01625486656282
100.00417677634682
100.00151995018612
100.00096031610191
100.00085021232735
100.00082977848353
100.00082616021686
100.00082554265242
100.00082544011724
100.00082542448811
100.00082542665442
100.00082544671142
100.000825536236
100.00082592956248
100.00082765383866
100.00083521388544
100.00086836013553
100.00101368507733
100.00165084080527
100.00444436485319
100.01669216715635
100.0703910675484
100.30582700031746
101.33806664167105
105.8638054175648
125.70643490101568
125.70490334607295
105.86301508233004
101.33759384634372
100.30580708896619
100.07104443561998
100.01814147245163
100.00657898892412
100.00417677341756
100.00371805017755
100.00363578022231
100.00362170351431
100.00361937719893
100.00361900184569
100.00361894341378
100.00361893621225
100.00361893840352
100.00361895847624
100.00361904845687
100.00361944230906
100.0036211665152
100.00362872620002
100.00366187311921
100.00380720023134
100.00444436721314
100.00723794803494
100.01948606002844
100.07318663883984
100.30863223445289
101.34092881083527
105.86701369391358
125.71179455180986
125.7052183596647
105.86392959140001
101.33988036492389
100.31042712318084
100.07866350514556
100.02841311441917
100.01814146715057
100.01625487664273
100.01593016490756
100.01587675619838
100.01586824221117
100.0158669182901
100.01586671038736
100.01586667835977
100.01586667771993
100.01586668191666
100.01586670023346
100.01586679096522
100.01586718279069
100.01586890630348
100.01587646856632
100.0159096210649
100.01605496036241
100.01669218825248
100.01948606452143
100.03173568057966
100.08544417648392
100.32093371959411
101.35348667616216
105.88111281895787
125.73535519357505
125.70763276049287
105.87086355970472
101.35608123860061
100.34037733084102
100.12238562002223
100.07866353911722
100.07104441357123
100.06979665310578
100.06960050813743
100.0695704125055
100.06956588319198
100.06956519798621
100.06956510522114
100.06956510898604
100.06956508688297
100.06956508853585
100.06956511678275
100.06956521511077
100.06956560508284
100.06956732099229
100.06957489165207
100.0696080547171
100.06975347692126
100.07039106304633
100.07318658126727
100.08544409386337
100.1391919532373
100.37488866644485
101.40860264056172
105.94308315125456
125.83908178748392
125.7259600696001
105.92310523698542
101.46885364230039
100.5255263601519
100.3403785786298
100.31042737201498
100.3058078370535
100.3051179076824
100.30501643501553
100.30500171808373
100.30499969286586
100.30499928693993
100.30499921945318
100.30499926447001
100.30499926925074
100.30499925053496
100.30499927789994
100.30499933432635
100.30499971100784
100.3050014826474
100.30500912654864
100.30504236837518
100.30518822141451
100.3058279259276
100.30863297556262
100.32093433820513
100.3748894108573
100.61160714263707
101.65071024152283
106.21580111228293
126.29636480872324
125.87165037826172
106.3160542821319
102.2485394101319
101.46885147121073
101.35608375161797
101.33988350710075
101.3375983615426
101.33727718020859
101.33723158532753
101.33722551886402
101.33722429761396
101.33722434080914
101.33722463615558
101.33722420261974
101.33722427774026
101.33722435453048
101.33722451291484
101.33722451702252
101.33722482603888
101.3372267170177
101.33723430003934
101.33726832148497
101.3374171231568
101.33806950135953
101.34093160797491
101.35348842446469
101.40860458639229
101.65071286901797
102.71553478935532
107.41891894077382
128.3079917048338
127.02652817910122
109.58236605871647
106.31605321971338
105.92310298012023
105.87087977709325
105.8639460896714
105.86301038470432
105.86288118786172
105.86286598875506
105.86286462218987
105.86286273357481
105.86286204405516
105.86286261507756
105.86286366292094
105.86286273592489
105.86286276197096
105.86286185153484
105.86286215634722
105.86286359446594
105.86286608968699
105.86287429510907
105.86291147547286
105.8630786639966
105.86381008304045
105.86702012351313
105.88111678130524
105.94308481725179
106.2158131037298
107.41892267001657
112.70348728622224
137.21843152080535
140.66767009224841
127.02652143530393
125.87164708924806
125.72595974873016
125.70763101937037
125.70522641935958
125.70490552099199
125.70486576337706
125.70485734311409
125.70485312907545
125.70485568515129
125.70485732771985
125.7048561637066
125.70485447093195
125.70485587304272
125.70485564286808
125.70485722726727
125.70485774203406
125.7048571328711
125.70485876632058
125.7048737503391
125.70493872833742
125.70521598391156
125.70643609319109
125.71179451312418
125.73535688067345
125.83907762249984
126.29637273436487
128.30799009526694
137.2184251296436
166.9355934523904
