# vtk DataFile Version 2.0
Unstructured Grid Example
ASCII
DATASET UNSTRUCTURED_GRID

POINTS 961 float
0.150000006 -0.00839745998 0
0.146666661 -0.00839745998 0
0.143333331 -0.00839745998 0
0.140000001 -0.00839745998 0
0.13666667 -0.00839745998 0
0.13333334 -0.00839745998 0
0.129999995 -0.00839745998 0
0.126666665 -0.00839745998 0
0.123333335 -0.00839745998 0
0.119999997 -0.00839745998 0
0.116666667 -0.00839745998 0
0.113333337 -0.00839745998 0
0.109999999 -0.00839745998 0
0.106666669 -0.00839745998 0
0.103333332 -0.00839745998 0
0.100000001 -0.00839745998 0
0.0966666639 -0.00839745998 0
0.0933333337 -0.00839745998 0
0.0900000036 -0.00839745998 0
0.086666666 -0.00839745998 0
0.0833333358 -0.00839745998 0
0.0799999982 -0.00839745998 0
0.0766666681 -0.00839745998 0
0.0733333305 -0.00839745998 0
0.0700000003 -0.00839745998 0
0.0666666701 -0.00839745998 0
0.0633333325 -0.00839745998 0
0.0599999987 -0.00839745998 0
0.0566666685 -0.00839745998 0
0.0533333346 -0.00839745998 0
0.0500000007 -0.00839745998 0
0.148333326 -0.0112842107 0
0.144999996 -0.0112842107 0
0.141666666 -0.0112842107 0
0.138333336 -0.0112842107 0
0.135000005 -0.0112842107 0
0.13166666 -0.0112842107 0
0.12833333 -0.0112842107 0
0.125 -0.0112842107 0
0.12166667 -0.0112842107 0
0.118333332 -0.0112842107 0
0.115000002 -0.0112842107 0
0.111666664 -0.0112842107 0
0.108333334 -0.0112842107 0
0.104999997 -0.0112842107 0
0.101666667 -0.0112842107 0
0.0983333364 -0.0112842107 0
0.0949999988 -0.0112842107 0
0.0916666687 -0.0112842107 0
0.088333331 -0.0112842107 0
0.0850000009 -0.0112842107 0
0.0816666633 -0.0112842107 0
0.0783333331 -0.0112842107 0
0.075000003 -0.0112842107 0
0.0716666654 -0.0112842107 0
0.0683333352 -0.0112842107 0
0.0649999976 -0.0112842107 0
0.0616666675 -0.0112842107 0
0.0583333336 -0.0112842107 0
0.0549999997 -0.0112842107 0
0.0516666658 -0.0112842107 0
0.0483333319 -0.0112842107 0
0.146666661 -0.0141709624 0
0.143333331 -0.0141709624 0
0.140000001 -0.0141709624 0
0.13666667 -0.0141709624 0
0.13333334 -0.0141709624 0
0.129999995 -0.0141709624 0
0.126666665 -0.0141709624 0
0.123333335 -0.0141709624 0
0.119999997 -0.0141709624 0
0.116666667 -0.0141709624 0
0.113333337 -0.0141709624 0
0.109999999 -0.0141709624 0
0.106666669 -0.0141709624 0
0.103333332 -0.0141709624 0
0.100000001 -0.0141709624 0
0.0966666639 -0.0141709624 0
0.0933333337 -0.0141709624 0
0.0900000036 -0.0141709624 0
0.086666666 -0.0141709624 0
0.0833333358 -0.0141709624 0
0.0799999982 -0.0141709624 0
0.0766666681 -0.0141709624 0
0.0733333305 -0.0141709624 0
0.0700000003 -0.0141709624 0
0.0666666701 -0.0141709624 0
0.0633333325 -0.0141709624 0
0.0599999987 -0.0141709624 0
0.0566666685 -0.0141709624 0
0.0533333346 -0.0141709624 0
0.0500000007 -0.0141709624 0
0.0466666669 -0.0141709624 0
0.144999996 -0.0170577131 0
0.141666666 -0.0170577131 0
0.138333336 -0.0170577131 0
0.135000005 -0.0170577131 0
0.13166666 -0.0170577131 0
0.12833333 -0.0170577131 0
0.125 -0.0170577131 0
0.12166667 -0.0170577131 0
0.118333332 -0.0170577131 0
0.115000002 -0.0170577131 0
0.111666664 -0.0170577131 0
0.108333334 -0.0170577131 0
0.104999997 -0.0170577131 0
0.101666667 -0.0170577131 0
0.0983333364 -0.0170577131 0
0.0949999988 -0.0170577131 0
0.0916666687 -0.0170577131 0
0.088333331 -0.0170577131 0
0.0850000009 -0.0170577131 0
0.0816666633 -0.0170577131 0
0.0783333331 -0.0170577131 0
0.075000003 -0.0170577131 0
0.0716666654 -0.0170577131 0
0.0683333352 -0.0170577131 0
0.0649999976 -0.0170577131 0
0.0616666675 -0.0170577131 0
0.0583333336 -0.0170577131 0
0.0549999997 -0.0170577131 0
0.0516666658 -0.0170577131 0
0.0483333319 -0.0170577131 0
0.0450000018 -0.0170577131 0
0.143333331 -0.0199444648 0
0.140000001 -0.0199444648 0
0.13666667 -0.0199444648 0
0.13333334 -0.0199444648 0
0.129999995 -0.0199444648 0
0.126666665 -0.0199444648 0
0.123333335 -0.0199444648 0
0.119999997 -0.0199444648 0
0.116666667 -0.0199444648 0
0.113333337 -0.0199444648 0
0.109999999 -0.0199444648 0
0.106666669 -0.0199444648 0
0.103333332 -0.0199444648 0
0.100000001 -0.0199444648 0
0.0966666639 -0.0199444648 0
0.0933333337 -0.0199444648 0
0.0900000036 -0.0199444648 0
0.086666666 -0.0199444648 0
0.0833333358 -0.0199444648 0
0.0799999982 -0.0199444648 0
0.0766666681 -0.0199444648 0
0.0733333305 -0.0199444648 0
0.0700000003 -0.0199444648 0
0.0666666701 -0.0199444648 0
0.0633333325 -0.0199444648 0
0.0599999987 -0.0199444648 0
0.0566666685 -0.0199444648 0
0.0533333346 -0.0199444648 0
0.0500000007 -0.0199444648 0
0.0466666669 -0.0199444648 0
0.043333333 -0.0199444648 0
0.141666666 -0.0228312165 0
0.138333336 -0.0228312165 0
0.135000005 -0.0228312165 0
0.13166666 -0.0228312165 0
0.12833333 -0.0228312165 0
0.125 -0.0228312165 0
0.12166667 -0.0228312165 0
0.118333332 -0.0228312165 0
0.115000002 -0.0228312165 0
0.111666664 -0.0228312165 0
0.108333334 -0.0228312165 0
0.104999997 -0.0228312165 0
0.101666667 -0.0228312165 0
0.0983333364 -0.0228312165 0
0.0949999988 -0.0228312165 0
0.0916666687 -0.0228312165 0
0.088333331 -0.0228312165 0
0.0850000009 -0.0228312165 0
0.0816666633 -0.0228312165 0
0.0783333331 -0.0228312165 0
0.075000003 -0.0228312165 0
0.0716666654 -0.0228312165 0
0.0683333352 -0.0228312165 0
0.0649999976 -0.0228312165 0
0.0616666675 -0.0228312165 0
0.0583333336 -0.0228312165 0
0.0549999997 -0.0228312165 0
0.0516666658 -0.0228312165 0
0.0483333319 -0.0228312165 0
0.0450000018 -0.0228312165 0
0.0416666679 -0.0228312165 0
0.140000001 -0.0257179681 0
0.13666667 -0.0257179681 0
0.13333334 -0.0257179681 0
0.129999995 -0.0257179681 0
0.126666665 -0.0257179681 0
0.123333335 -0.0257179681 0
0.119999997 -0.0257179681 0
0.116666667 -0.0257179681 0
0.113333337 -0.0257179681 0
0.109999999 -0.0257179681 0
0.106666669 -0.0257179681 0
0.103333332 -0.0257179681 0
0.100000001 -0.0257179681 0
0.0966666639 -0.0257179681 0
0.0933333337 -0.0257179681 0
0.0900000036 -0.0257179681 0
0.086666666 -0.0257179681 0
0.0833333358 -0.0257179681 0
0.0799999982 -0.0257179681 0
0.0766666681 -0.0257179681 0
0.0733333305 -0.0257179681 0
0.0700000003 -0.0257179681 0
0.0666666701 -0.0257179681 0
0.0633333325 -0.0257179681 0
0.0599999987 -0.0257179681 0
0.0566666685 -0.0257179681 0
0.0533333346 -0.0257179681 0
0.0500000007 -0.0257179681 0
0.0466666669 -0.0257179681 0
0.043333333 -0.0257179681 0
0.0399999991 -0.0257179681 0
0.138333336 -0.0286047198 0
0.135000005 -0.0286047198 0
0.13166666 -0.0286047198 0
0.12833333 -0.0286047198 0
0.125 -0.0286047198 0
0.12166667 -0.0286047198 0
0.118333332 -0.0286047198 0
0.115000002 -0.0286047198 0
0.111666664 -0.0286047198 0
0.108333334 -0.0286047198 0
0.104999997 -0.0286047198 0
0.101666667 -0.0286047198 0
0.0983333364 -0.0286047198 0
0.0949999988 -0.0286047198 0
0.0916666687 -0.0286047198 0
0.088333331 -0.0286047198 0
0.0850000009 -0.0286047198 0
0.0816666633 -0.0286047198 0
0.0783333331 -0.0286047198 0
0.075000003 -0.0286047198 0
0.0716666654 -0.0286047198 0
0.0683333352 -0.0286047198 0
0.0649999976 -0.0286047198 0
0.0616666675 -0.0286047198 0
0.0583333336 -0.0286047198 0
0.0549999997 -0.0286047198 0
0.0516666658 -0.0286047198 0
0.0483333319 -0.0286047198 0
0.0450000018 -0.0286047198 0
0.0416666679 -0.0286047198 0
0.038333334 -0.0286047198 0
0.13666667 -0.0314914696 0
0.13333334 -0.0314914696 0
0.129999995 -0.0314914696 0
0.126666665 -0.0314914696 0
0.123333335 -0.0314914696 0
0.119999997 -0.0314914696 0
0.116666667 -0.0314914696 0
0.113333337 -0.0314914696 0
0.109999999 -0.0314914696 0
0.106666669 -0.0314914696 0
0.103333332 -0.0314914696 0
0.100000001 -0.0314914696 0
0.0966666639 -0.0314914696 0
0.0933333337 -0.0314914696 0
0.0900000036 -0.0314914696 0
0.086666666 -0.0314914696 0
0.0833333358 -0.0314914696 0
0.0799999982 -0.0314914696 0
0.0766666681 -0.0314914696 0
0.0733333305 -0.0314914696 0
0.0700000003 -0.0314914696 0
0.0666666701 -0.0314914696 0
0.0633333325 -0.0314914696 0
0.0599999987 -0.0314914696 0
0.0566666685 -0.0314914696 0
0.0533333346 -0.0314914696 0
0.0500000007 -0.0314914696 0
0.0466666669 -0.0314914696 0
0.043333333 -0.0314914696 0
0.0399999991 -0.0314914696 0
0.0366666652 -0.0314914696 0
0.135000005 -0.0343782231 0
0.13166666 -0.0343782231 0
0.12833333 -0.0343782231 0
0.125 -0.0343782231 0
0.12166667 -0.0343782231 0
0.118333332 -0.0343782231 0
0.115000002 -0.0343782231 0
0.111666664 -0.0343782231 0
0.108333334 -0.0343782231 0
0.104999997 -0.0343782231 0
0.101666667 -0.0343782231 0
0.0983333364 -0.0343782231 0
0.0949999988 -0.0343782231 0
0.0916666687 -0.0343782231 0
0.088333331 -0.0343782231 0
0.0850000009 -0.0343782231 0
0.0816666633 -0.0343782231 0
0.0783333331 -0.0343782231 0
0.075000003 -0.0343782231 0
0.0716666654 -0.0343782231 0
0.0683333352 -0.0343782231 0
0.0649999976 -0.0343782231 0
0.0616666675 -0.0343782231 0
0.0583333336 -0.0343782231 0
0.0549999997 -0.0343782231 0
0.0516666658 -0.0343782231 0
0.0483333319 -0.0343782231 0
0.0450000018 -0.0343782231 0
0.0416666679 -0.0343782231 0
0.038333334 -0.0343782231 0
0.0350000001 -0.0343782231 0
0.13333334 -0.0372649729 0
0.129999995 -0.0372649729 0
0.126666665 -0.0372649729 0
0.123333335 -0.0372649729 0
0.119999997 -0.0372649729 0
0.116666667 -0.0372649729 0
0.113333337 -0.0372649729 0
0.109999999 -0.0372649729 0
0.106666669 -0.0372649729 0
0.103333332 -0.0372649729 0
0.100000001 -0.0372649729 0
0.0966666639 -0.0372649729 0
0.0933333337 -0.0372649729 0
0.0900000036 -0.0372649729 0
0.086666666 -0.0372649729 0
0.0833333358 -0.0372649729 0
0.0799999982 -0.0372649729 0
0.0766666681 -0.0372649729 0
0.0733333305 -0.0372649729 0
0.0700000003 -0.0372649729 0
0.0666666701 -0.0372649729 0
0.0633333325 -0.0372649729 0
0.0599999987 -0.0372649729 0
0.0566666685 -0.0372649729 0
0.0533333346 -0.0372649729 0
0.0500000007 -0.0372649729 0
0.0466666669 -0.0372649729 0
0.043333333 -0.0372649729 0
0.0399999991 -0.0372649729 0
0.0366666652 -0.0372649729 0
0.0333333351 -0.0372649729 0
0.13166666 -0.0401517227 0
0.12833333 -0.0401517227 0
0.125 -0.0401517227 0
0.12166667 -0.0401517227 0
0.118333332 -0.0401517227 0
0.115000002 -0.0401517227 0
0.111666664 -0.0401517227 0
[...]
POINT_DATA 961
SCALARS Temp float 1
LOOKUP_TABLE default
380.7710207565153
331.4560142419657
291.5033032413948
261.48017835080947
240.18309982698202
225.89920310580308
216.82683348215107
211.35922071363888
208.2250046439648
206.51148243236813
205.61544211530534
205.165959414781
204.94904065178187
204.84805521430854
204.8025973146609
204.782804269548
204.77459279071405
204.771796283489
204.77250975974871
204.7782074790955
204.7955885424393
204.8425211273576
204.96129294921428
205.24418587709815
205.87681870202246
207.20130420134245
209.79087819359353
214.51110256032626
222.52880699344385
235.23940946526147
254.3945473040024
331.4560297891673
284.38375846771095
248.059402344511
221.45946006801097
203.03591536280481
190.95505380642797
183.44379910321325
179.00649471036022
176.5096650380733
175.16780427971614
174.47707301141847
174.1355338631786
173.97286591414692
173.89804674077436
173.86475345533822
173.85046988959593
173.8448114328975
173.84357956383846
173.84634794239156
173.85676959023147
173.8861742140985
173.96269211932207
174.15004483802278
174.5815249725494
175.51367029775017
177.39758873341214
180.9520053095015
187.2044486230313
197.45706126869774
213.15549131271285
235.23942875377764
291.5032598424607
248.05938366878422
215.0803477306684
191.31722412159968
175.07724324186634
164.54634284050002
158.05844742993946
154.25371343177258
152.12501297306434
150.98590058131182
150.40134350778175
150.11290838794523
149.97571292012282
149.9126609772035
149.88464057799078
149.87271611501987
149.86830522815364
149.86834603325346
149.87375789601865
149.89087966116233
149.93703177956985
150.05315722003013
150.32825945187932
150.94093519913935
152.22031261017992
154.71929766909233
159.2769694990107
167.0299150969639
179.32502719688227
197.4570517533752
222.52881608095132
261.4801274965449
221.4594351898128
191.31722667585976
169.7268668940169
155.02762973092666
145.5134106543845
139.6531997343971
136.21304870586732
134.28456582677458
133.24990843172375
132.71735104840428
132.45372606645205
132.3279197973188
132.26992577730414
132.24411796764173
132.2332460892397
132.2296524472299
132.23112295915328
132.2400733448634
132.2661354634691
132.33380551905233
132.49858123537365
132.87640224643636
133.69072515927155
135.33663741845808
138.45003771523787
143.9536120904171
153.0372094108815
167.02992937692972
187.20446137197888
214.51109418460135
240.18305744352085
203.0358952784692
175.0772337905967
155.0276833862232
141.3421622014933
132.4524103728193
126.95401194978308
123.71194048212381
121.88640835972365
120.90276382265098
120.3944118961056
120.14183033535757
120.02089084771295
119.96499108288296
119.94011145523278
119.92980309006913
119.92697730920514
119.9302337500977
119.94370900867925
119.980823772743
120.07393686693005
120.29352835299379
120.78138297435638
121.80065004191158
123.79934397548615
127.47184971772924
133.7882973141387
143.95360597587
159.27696538335437
180.9520031566934
209.79088436824702
225.89916313808698
190.9550827872315
164.54638124155096
145.51338304279753
132.45239998329077
123.92339612495387
118.62183527980015
115.48164688009798
113.70635970722313
112.74642052481548
112.24881775793646
112.00093679905436
111.88199496954005
111.82694491082727
111.8024935252635
111.79260941919581
111.79065418955408
111.7960940163205
111.81496160749708
111.86468586243588
111.98546530016003
112.26173197840015
112.8575513896563
114.06735159606761
116.3764357808299
120.514328180941
127.47184746856406
138.45003888537184
154.71930456920762
177.3975685867549
207.20129705111626
216.82683929037873
183.4438180457277
158.05848754211607
139.65316741081614
126.95400023494733
118.6218326831869
113.42175934568014
110.33139838125453
108.57948592489772
107.63007388209627
107.13704145705952
106.89108281066373
106.77293731307917
106.7182418212832
106.69404349637088
106.6845785425133
106.68363458961505
106.69158502232908
106.71640249648053
106.77939305270428
106.92785006559711
107.25793477442286
107.95093266297857
109.32313426654349
111.8826997278469
116.37643298765558
123.79933777889796
135.3366281377652
152.22031020417182
175.5136678702393
205.87682766599846
211.35923434751635
179.00651873968863
154.25366243434866
136.21302126056747
123.71193851279479
115.48165442565195
110.33139673112542
107.26429274429248
105.52278562915663
104.57786179256665
104.08669784063495
103.84150011446978
103.72367057915572
103.66914662775598
103.64515431852439
103.63614277572361
103.63631979949545
103.64695436611918
103.67784098189868
103.75370320865677
103.92765711028136
104.30474994596983
105.0781585383968
106.57761706636745
109.3231329312836
114.06734980533945
121.8006511214754
133.69072608834068
150.9409217207026
174.58150618686844
205.2441761177759
208.22501070508122
176.5096966413528
152.12496861646815
134.28454866542728
121.88640961570856
113.70635288833672
108.57948471027304
105.52278985616176
103.78573774004785
102.84265586858746
102.35223126318333
102.10732885750011
101.98963236351437
101.93521795151237
101.91142654234127
101.90289802505944
101.90423775714925
101.91753270889727
101.95414351129236
102.041534078813
102.23714551794896
102.65207566673205
103.48678904318645
105.07815974264696
107.95093272679135
112.85755055962306
120.78138176483249
132.8763983437303
150.3282630501588
174.15005118596073
204.96131154323797
206.5115157165261
175.16774077369905
150.9858791240048
133.249905742611
120.90277508088907
112.74641980991106
107.63007774044954
104.57786109938004
102.84265526103366
101.90030410704338
101.41016670363489
101.16538112381227
101.04775275696412
100.99342992806447
100.96984167977487
100.96179965867836
100.96426150538674
100.98000028764524
101.02160582423133
101.11853936023815
101.33114357118721
101.7741990259955
102.65207487866257
104.30474964860409
107.2579346693207
112.2617316705772
120.29352842126947
132.49856593254611
150.0531432729751
173.9626756609429
204.84251232285123
205.6154994713473
174.47702407856838
150.40133275653497
132.7173561290965
120.39440412916761
112.24881909384943
107.13704689520902
104.08669796460553
102.35223221244686
101.41016664972415
100.92014158760746
100.67540880853693
100.55782871441635
100.5035933640934
100.4802050663067
100.47262213986504
100.47609095161062
100.49391220099386
100.53955534337734
100.64380162525487
100.8687442254724
101.33114424265067
102.23714577039775
103.92765635979424
106.92784880126423
111.98546417498076
120.07393417788636
132.33380397904904
149.93703659002514
173.88618266060647
204.7955752530352
205.16590085634544
174.1355027864431
150.11290727427055
132.45373798804536
120.14182378107589
112.00093987077491
106.89107998399521
103.84150066461157
102.10732717408136
101.16538113926927
100.67540925488183
100.43071281314229
100.31317921628688
100.25903169551903
100.23583215833358
100.22865567657054
100.23296633847974
100.25243613284381
100.30110782749979
100.41055149602607
100.64380210257347
101.11853973783528
102.04153374665924
103.75370469545815
106.77939549312845
111.86469080585202
119.98081979879852
132.26613029161135
149.89088068942667
173.8567711348938
204.77822138373384
204.94901454942465
173.97286218608502
149.97573045225764
132.32790909422627
120.0208928655331
111.88200449145775
106.77293671439193
103.72367309205636
101.98963151055173
101.04775324383365
100.55782845614559
100.31317907478879
100.19570435761887
100.14165088160124
100.1186258978469
100.11179079775488
100.11676063965533
100.13744658308782
100.1882309339598
100.30110750335093
100.53955523078292
101.0216063594047
101.95414224848685
103.67784047105279
106.71640150773192
111.81495986091676
119.94370758850724
132.24007191017742
149.87376409104755
173.8463255379915
204.77251328238535
204.8480343947095
173.89804656602897
149.91268340753462
132.26991566736731
119.96499426616715
111.82693949766096
106.7182420879745
103.66914479222474
101.93521742127103
100.99343069074729
100.50359303181591
100.25903166893713
100.14165084968971
100.08771248414122
100.06485531214783
100.05830039589407
100.06375986206336
100.0852867419032
100.1374465371982
100.2524362166048
100.4939121428728
100.98000061798763
101.91753259475124
103.64695577011676
106.69158770542617
111.7960915608788
119.93023030784772
132.2311186101515
149.86834701324244
173.84358330050395
204.77179569899423
204.80259707751284
173.8647726096091
149.88462813347374
132.2441185254063
119.94012416489205
111.8024921279692
106.69404773469613
103.64515384300003
101.91142650200383
100.9698415183858
100.48020504914582
100.23583225827318
100.11862586622343
100.06485534156865
100.04218135216787
100.03586540895186
100.04168053522227
100.0637598359123
100.11676056441794
100.23296622206661
100.47609097057278
100.96426127084906
101.90423658317664
103.63631930285767
106.68363345829894
111.79065343625054
119.92697663413497
132.22965212458442
149.86829052873034
173.8448077467504
204.77458479723688
204.78280475741892
173.85049151741188
149.87270401310457
132.2332486235227
119.92979380016875
111.7926091097414
106.68457492235817
103.63614291219805
101.90289861827813
100.96179946770805
100.47262218766211
100.22865543008494
100.11179080426524
100.05830035002776
100.03586540928696
100.02978129666953
100.03586542063175
100.05830036722915
100.1117908842925
100.22865553962879
100.47262204925426
100.96180003808118
101.90289800182241
103.63614438174908
106.68457700265873
111.79260727105378
119.92980102689216
132.23324213557947
149.8727205805584
173.85046057755034
204.78280667868256
204.77461363223
173.84478819574593
149.86831123891443
132.22966908554085
119.92697432744174
111.79066028768827
106.68363359920329
103.63632110234305
101.90423657534654
100.96426188427701
100.4760913633899
100.23296621176175
100.1167607433666
100.0637598483133
100.04168054628498
100.03586542944696
100.04218137075561
100.06485528556675
100.11862589521094
100.23583208264026
100.48020474710323
100.96984150557022
101.91142545655264
103.6451536403505
106.69404327533532
111.80249326311693
119.94011184645632
132.24410222858427
149.88463788879818
173.86473752175445
204.80258915311245
204.7718275992269
173.84356196513008
149.86835587009003
132.2311072771428
119.93023271984563
111.79608775534415
106.69158498804842
103.64695675460385
101.91753148672967
100.98000086982104
100.4939119165109
100.25243605145444
100.13744649861603
100.0852867153844
100.0637598822414
100.05830040285498
100.06485531899392
100.08771252038163
100.14165089802623
100.25903159131276
100.50359330393835
100.99343031171338
101.9352181485434
103.6691458000044
106.71824063029354
111.8269433793219
119.96498837383001
132.26992447312992
149.91265306036965
173.8980381260727
204.84805629111287
204.77247718011853
173.84633793362417
149.87377408668846
132.24005846198548
119.94371115867663
111.81495564290059
106.71640193866558
103.67783890632363
101.95414256201953
101.02160667323935
100.5395549723208
100.301107746967
100.18823088745162
100.13744655445821
100.11676063555291
100.11179079451253
100.11862587892743
100.14165091358349
100.19570430952571
100.31317901787521
100.55782863264919
101.04775305623755
101.98963208665553
103.72367169521152
106.77293947822609
111.8819996760101
120.02088645947907
132.32792210074533
149.9757125364585
173.97286587910577
204.94905067484257
204.77820027977108
173.85678189479233
149.89086317348526
132.26613293112246
119.98081330068884
111.86468617618209
106.77939707654326
103.75370272577301
102.04153422545717
101.1185393173866
100.64380178891413
100.41055141748282
100.30110776681119
100.2524361844325
100.23296635552632
100.22865567926601
100.23583217260504
100.25903171341352
100.31317917188844
100.43071293540089
100.6754090316368
101.16538147287287
102.10732759117356
103.84149957471072
106.89108184561397
112.00093525133663
120.1418287380528
132.45371490176893
150.11290099620678
174.13552472455277
205.16596001949188
204.79558422141997
173.88619182830743
149.93701598256797
132.33380826064763
120.0739273681221
111.98546486270182
106.92784612759117
103.92765696604528
102.23714638231101
101.33114376861009
100.86874472041144
100.64380156073621
100.53955529224957
100.4939121854084
100.47609092512147
100.472622142194
100.48020510113761
100.50359333184983
100.55782869595822
100.67540888654344
100.92014146124146
101.41016690214313
102.35223131640657
104.08669940690413
107.1370436606114
112.24881488475849
120.39441331138282
132.71734580305016
150.40134310687776
174.4770731413588
205.61543893318986
204.8425175260596
173.962648454721
150.05314605432247
132.49855611551806
120.29352138110373
112.26173430327287
107.25793148687944
104.30475056492939
102.65207417697896
101.77419848213472
101.33114342520828
101.11853922745796
101.02160593641307
100.98000035791466
100.96426151553929
100.96179966282297
100.96984167999803
100.99342990118713
101.04775281328371
101.1653810082223
101.41016688174564
101.90030427636205
102.84265463034698
104.5778621823408
107.63007511476837
112.74642395246192
120.9027616656178
133.2499071771524
150.9859086571743
175.16781532786075
206.5114993044948
204.96133891923378
174.150041787241
150.32828292776108
132.8763988843914
120.78139041657622
112.85755155284068
107.95093756459916
105.0781636527241
103.48679045732528
102.65207853053305
102.23714724788303
102.04153570442779
101.95414514085897
101.91753427372191
101.90423942922884
101.9028997487869
101.91142813827551
101.9352196088571
101.98963401061255
102.1073303216788
102.35223283268701
102.84265662916482
103.78573946478313
105.52278836211883
108.57948208473128
113.70635801347423
121.88640149310424
134.28455521638872
152.12500538330633
176.50963712798082
208.22498694021007
205.24416896949387
174.58153066954583
150.94092333048312
133.69072734614207
121.80066350760538
114.06735120973437
109.32313934886511
106.57761995000612
105.07816114521427
104.30475290154443
103.92765991036384
103.75370645375438
103.67784420499677
103.64695739853592
103.63632278274702
103.63614573177654
103.64515727524923
103.66914962356095
103.72367347686861
103.84150316825365
104.08670067897596
104.57786411161345
105.52278862939563
107.26429317638824
110.33140079639753
115.48164645932263
123.71193945944883
136.2130407089247
154.25371106532057
179.00648805641254
211.359218571636
205.8768117964668
175.51368673216078
152.22030561620275
135.3366368906154
123.79933675146313
116.37643892255151
111.88270500443141
109.32313591601138
107.95093699494008
107.25793747025492
106.92785255523178
106.77939552397793
106.71640480036922
106.6915876208395
106.68363732617726
106.68458100336431
106.69404616307853
106.71824442234274
106.77293978254424
106.89108542478034
107.13704374941602
107.63007682174168
108.57948730012495
110.3313998939054
113.42176625527952
118.62183220840967
126.95401081908786
139.6532000325004
158.05844379542688
183.4437963516611
216.82684127729036
207.20130482669694
177.3975532063674
154.7192929212643
138.45004574255893
127.4718415007541
120.51433109486307
116.37643450830583
114.06735049377562
112.85755106399462
112.26173149451947
111.98546575607443
111.8646864674668
111.81496180393054
111.79609408484536
111.790654184144
111.79260949324791
111.80249363654968
111.82694501828902
111.88199533075601
112.00093687215491
112.24881784582257
112.74642126200405
113.7063593592157
115.48164935972231
118.62183127419051
123.92339905196059
132.45241668080374
145.51342067427208
164.54635547629059
190.9550618637909
225.89916572935573
209.79088272166075
180.95197782625422
159.2769606446094
143.95359043609074
133.7882930473961
127.47184571610417
123.79933533680298
121.80064579748719
120.78137671133132
120.29352176552767
120.07393020805938
119.98081674140705
119.94370259014627
119.93022761722088
119.92697066005817
119.92979687260734
119.9401050774469
119.96498454673174
120.02088449679671
120.14182394116611
120.39440589786058
120.90275703620492
121.88640249722874
123.71193805242672
126.95400515259782
132.45241143343557
141.34217823132846
155.02763952906128
175.0772018239261
203.03587507706857
240.1830586361388
214.51110550657123
187.2044744111493
167.02996300686334
153.037224750573
143.95363717190693
138.450056199663
135.33665550679257
133.69074383325972
132.8764204235626
132.49860085855272
132.3338254747524
132.26615469575043
132.24009230726824
132.2311417598547
132.22967147809882
132.2332651216993
132.2441370391132
132.26994519475028
132.32793864199004
132.45374509465776
132.71737036515765
133.24992676804405
134.2845852277217
136.21306315465728
139.65321710721062
145.51343458079964
155.02766351027532
169.72684322280602
191.3171948003295
221.45940764931134
261.48013229544233
222.52882621812566
197.45708411690424
179.3250428112624
167.0299417144384
159.27699480072891
154.71931604068865
152.22033604021414
150.9409560039195
150.32827969221555
150.05317723932959
149.93705105860047
149.89089985199053
149.87377853231024
149.86836595790692
149.86832582155986
149.87273642241047
149.88466065207882
149.91268118502256
149.97573317736243
150.11292868689867
150.40136297767074
150.98592089961957
152.12503446257648
154.25373033561138
158.05846761847522
164.5463693900823
175.07721690448057
191.31719734094446
215.08031580130532
248.05935416518224
291.50325982741714
235.23943126019543
213.1555148258035
197.4570642402566
187.20446298285785
180.9520125544669
177.3975957984837
175.51367816561185
174.58153235902404
174.15005437456114
173.9627020012338
173.88618300641195
173.8567780699221
173.84635620937888
173.84358833041182
173.84482009678814
173.85047862811084
173.86476260543094
173.89805509419685
173.97287471162304
174.13554285299378
174.4770813134585
175.16781316290292
176.5096706617922
179.00650249960336
183.4438109254182
190.95507183065246
203.03588329207264
221.4594151906408
248.05934822235892
284.38370570952833
331.45593849680995
254.3945637058892
235.2394040367876
222.52881317007026
214.51110776384763
209.79087553007625
207.20130736282326
205.87681874069375
205.24418658488023
204.9612933624014
204.84251952784638
204.79558842287648
204.7782076681825
204.7725097393698
204.77179674896678
204.77459291223678
204.78280439935935
204.80259683706592
204.84805558437452
204.94904068760965
205.1659587426494
205.61544237443238
206.51148372483192
208.22500284551586
211.35922066188868
216.82683612333057
225.89916081331555
240.18305727308098
261.4801241073687
291.50323684226913
331.4559205654524
380.7706099813562
