# vtk DataFile Version 2.0
Unstructured Grid Example
ASCII
DATASET UNSTRUCTURED_GRID

POINTS 961 float
0.400000004 0.01999999956 0
0.3866666556 0.01999999956 0
0.3733333348 0.01999999956 0
0.3600000144 0.01999999956 0
0.346666664 0.01999999956 0
0.3333333432 0.01999999956 0
0.3199999928 0.01999999956 0
0.3066666724 0.01999999956 0
0.293333322 0.01999999956 0
0.2800000012 0.01999999956 0
0.2666666804 0.01999999956 0
0.25333333 0.01999999956 0
0.2399999948 0.01999999956 0
0.226666674 0.01999999956 0
0.2133333384 0.01999999956 0
0.2000000028 0.01999999956 0
0.1866666676 0.01999999956 0
0.173333332 0.01999999956 0
0.1599999964 0.01999999956 0
0.1466666608 0.01999999956 0
0.1333333404 0.01999999956 0
0.1199999972 0.01999999956 0
0.1066666692 0.01999999956 0
0.0933333336 0.01999999956 0
0.0799999984 0.01999999956 0
0.06666667 0.01999999956 0
0.0533333348 0.01999999956 0
0.03999999912 0.01999999956 0
0.02666666732 0.01999999956 0
0.01333333364 0.01999999956 0
0.0 0.01999999956 0
0.400000004 0.00666666684 0
0.3866666556 0.00666666684 0
0.3733333348 0.00666666684 0
0.3600000144 0.00666666684 0
0.346666664 0.00666666684 0
0.3333333432 0.00666666684 0
0.3199999928 0.00666666684 0
0.3066666724 0.00666666684 0
0.293333322 0.00666666684 0
0.2800000012 0.00666666684 0
0.2666666804 0.00666666684 0
0.25333333 0.00666666684 0
0.2399999948 0.00666666684 0
0.226666674 0.00666666684 0
0.2133333384 0.00666666684 0
0.2000000028 0.00666666684 0
0.1866666676 0.00666666684 0
0.173333332 0.00666666684 0
0.1599999964 0.00666666684 0
0.1466666608 0.00666666684 0
0.1333333404 0.00666666684 0
0.1199999972 0.00666666684 0
0.1066666692 0.00666666684 0
0.0933333336 0.00666666684 0
0.0799999984 0.00666666684 0
0.06666667 0.00666666684 0
0.0533333348 0.00666666684 0
0.03999999912 0.00666666684 0
0.02666666732 0.00666666684 0
0.01333333364 0.00666666684 0
0.0 0.00666666684 0
0.400000004 -0.00666666684 0
0.3866666556 -0.00666666684 0
0.3733333348 -0.00666666684 0
0.3600000144 -0.00666666684 0
0.346666664 -0.00666666684 0
0.3333333432 -0.00666666684 0
0.3199999928 -0.00666666684 0
0.3066666724 -0.00666666684 0
0.293333322 -0.00666666684 0
0.2800000012 -0.00666666684 0
0.2666666804 -0.00666666684 0
0.25333333 -0.00666666684 0
0.2399999948 -0.00666666684 0
0.226666674 -0.00666666684 0
0.2133333384 -0.00666666684 0
0.2000000028 -0.00666666684 0
0.1866666676 -0.00666666684 0
0.173333332 -0.00666666684 0
0.1599999964 -0.00666666684 0
0.1466666608 -0.00666666684 0
0.1333333404 -0.00666666684 0
0.1199999972 -0.00666666684 0
0.1066666692 -0.00666666684 0
0.0933333336 -0.00666666684 0
0.0799999984 -0.00666666684 0
0.06666667 -0.00666666684 0
0.0533333348 -0.00666666684 0
0.03999999912 -0.00666666684 0
0.02666666732 -0.00666666684 0
0.01333333364 -0.00666666684 0
0.0 -0.00666666684 0
0.400000004 -0.01999999956 0
0.3866666556 -0.01999999956 0
0.3733333348 -0.01999999956 0
0.3600000144 -0.01999999956 0
0.346666664 -0.01999999956 0
0.3333333432 -0.01999999956 0
0.3199999928 -0.01999999956 0
0.3066666724 -0.01999999956 0
0.293333322 -0.01999999956 0
0.2800000012 -0.01999999956 0
0.2666666804 -0.01999999956 0
0.25333333 -0.01999999956 0
0.2399999948 -0.01999999956 0
0.226666674 -0.01999999956 0
0.2133333384 -0.01999999956 0
0.2000000028 -0.01999999956 0
0.1866666676 -0.01999999956 0
0.173333332 -0.01999999956 0
0.1599999964 -0.01999999956 0
0.1466666608 -0.01999999956 0
0.1333333404 -0.01999999956 0
0.1199999972 -0.01999999956 0
0.1066666692 -0.01999999956 0
0.0933333336 -0.01999999956 0
0.0799999984 -0.01999999956 0
0.06666667 -0.01999999956 0
0.0533333348 -0.01999999956 0
0.03999999912 -0.01999999956 0
0.02666666732 -0.01999999956 0
0.01333333364 -0.01999999956 0
0.0 -0.01999999956 0
0.400000004 -0.03333333508 0
0.3866666556 -0.03333333508 0
0.3733333348 -0.03333333508 0
0.3600000144 -0.03333333508 0
0.346666664 -0.03333333508 0
0.3333333432 -0.03333333508 0
0.3199999928 -0.03333333508 0
0.3066666724 -0.03333333508 0
0.293333322 -0.03333333508 0
0.2800000012 -0.03333333508 0
0.2666666804 -0.03333333508 0
0.25333333 -0.03333333508 0
0.2399999948 -0.03333333508 0
0.226666674 -0.03333333508 0
0.2133333384 -0.03333333508 0
0.2000000028 -0.03333333508 0
0.1866666676 -0.03333333508 0
0.173333332 -0.03333333508 0
0.1599999964 -0.03333333508 0
0.1466666608 -0.03333333508 0
0.1333333404 -0.03333333508 0
0.1199999972 -0.03333333508 0
0.1066666692 -0.03333333508 0
0.0933333336 -0.03333333508 0
0.0799999984 -0.03333333508 0
0.06666667 -0.03333333508 0
0.0533333348 -0.03333333508 0
0.03999999912 -0.03333333508 0
0.02666666732 -0.03333333508 0
0.01333333364 -0.03333333508 0
0.0 -0.03333333508 0
0.400000004 -0.0466666668 0
0.3866666556 -0.0466666668 0
0.3733333348 -0.0466666668 0
0.3600000144 -0.0466666668 0
0.346666664 -0.0466666668 0
0.3333333432 -0.0466666668 0
0.3199999928 -0.0466666668 0
0.3066666724 -0.0466666668 0
0.293333322 -0.0466666668 0
0.2800000012 -0.0466666668 0
0.2666666804 -0.0466666668 0
0.25333333 -0.0466666668 0
0.2399999948 -0.0466666668 0
0.226666674 -0.0466666668 0
0.2133333384 -0.0466666668 0
0.2000000028 -0.0466666668 0
0.1866666676 -0.0466666668 0
0.173333332 -0.0466666668 0
0.1599999964 -0.0466666668 0
0.1466666608 -0.0466666668 0
0.1333333404 -0.0466666668 0
0.1199999972 -0.0466666668 0
0.1066666692 -0.0466666668 0
0.0933333336 -0.0466666668 0
0.0799999984 -0.0466666668 0
0.06666667 -0.0466666668 0
0.0533333348 -0.0466666668 0
0.03999999912 -0.0466666668 0
0.02666666732 -0.0466666668 0
0.01333333364 -0.0466666668 0
0.0 -0.0466666668 0
0.400000004 -0.0599999988 0
0.3866666556 -0.0599999988 0
0.3733333348 -0.0599999988 0
0.3600000144 -0.0599999988 0
0.346666664 -0.0599999988 0
0.3333333432 -0.0599999988 0
0.3199999928 -0.0599999988 0
0.3066666724 -0.0599999988 0
0.293333322 -0.0599999988 0
0.2800000012 -0.0599999988 0
0.2666666804 -0.0599999988 0
0.25333333 -0.0599999988 0
0.2399999948 -0.0599999988 0
0.226666674 -0.0599999988 0
0.2133333384 -0.0599999988 0
0.2000000028 -0.0599999988 0
0.1866666676 -0.0599999988 0
0.173333332 -0.0599999988 0
0.1599999964 -0.0599999988 0
0.1466666608 -0.0599999988 0
0.1333333404 -0.0599999988 0
0.1199999972 -0.0599999988 0
0.1066666692 -0.0599999988 0
0.0933333336 -0.0599999988 0
0.0799999984 -0.0599999988 0
0.06666667 -0.0599999988 0
0.0533333348 -0.0599999988 0
0.03999999912 -0.0599999988 0
0.02666666732 -0.0599999988 0
0.01333333364 -0.0599999988 0
0.0 -0.0599999988 0
0.400000004 -0.0733333304 0
0.3866666556 -0.0733333304 0
0.3733333348 -0.0733333304 0
0.3600000144 -0.0733333304 0
0.346666664 -0.0733333304 0
0.3333333432 -0.0733333304 0
0.3199999928 -0.0733333304 0
0.3066666724 -0.0733333304 0
0.293333322 -0.0733333304 0
0.2800000012 -0.0733333304 0
0.2666666804 -0.0733333304 0
0.25333333 -0.0733333304 0
0.2399999948 -0.0733333304 0
0.226666674 -0.0733333304 0
0.2133333384 -0.0733333304 0
0.2000000028 -0.0733333304 0
0.1866666676 -0.0733333304 0
0.173333332 -0.0733333304 0
0.1599999964 -0.0733333304 0
0.1466666608 -0.0733333304 0
0.1333333404 -0.0733333304 0
0.1199999972 -0.0733333304 0
0.1066666692 -0.0733333304 0
0.0933333336 -0.0733333304 0
0.0799999984 -0.0733333304 0
0.06666667 -0.0733333304 0
0.0533333348 -0.0733333304 0
0.03999999912 -0.0733333304 0
0.02666666732 -0.0733333304 0
0.01333333364 -0.0733333304 0
0.0 -0.0733333304 0
0.400000004 -0.086666666 0
0.3866666556 -0.086666666 0
0.3733333348 -0.086666666 0
0.3600000144 -0.086666666 0
0.346666664 -0.086666666 0
0.3333333432 -0.086666666 0
0.3199999928 -0.086666666 0
0.3066666724 -0.086666666 0
0.293333322 -0.086666666 0
0.2800000012 -0.086666666 0
0.2666666804 -0.086666666 0
0.25333333 -0.086666666 0
0.2399999948 -0.086666666 0
0.226666674 -0.086666666 0
0.2133333384 -0.086666666 0
0.2000000028 -0.086666666 0
0.1866666676 -0.086666666 0
0.173333332 -0.086666666 0
0.1599999964 -0.086666666 0
0.1466666608 -0.086666666 0
0.1333333404 -0.086666666 0
0.1199999972 -0.086666666 0
0.1066666692 -0.086666666 0
0.0933333336 -0.086666666 0
0.0799999984 -0.086666666 0
0.06666667 -0.086666666 0
0.0533333348 -0.086666666 0
0.03999999912 -0.086666666 0
0.02666666732 -0.086666666 0
0.01333333364 -0.086666666 0
0.0 -0.086666666 0
0.400000004 -0.1000000016 0
0.3866666556 -0.1000000016 0
0.3733333348 -0.1000000016 0
0.3600000144 -0.1000000016 0
0.346666664 -0.1000000016 0
0.3333333432 -0.1000000016 0
0.3199999928 -0.1000000016 0
0.3066666724 -0.1000000016 0
0.293333322 -0.1000000016 0
0.2800000012 -0.1000000016 0
0.2666666804 -0.1000000016 0
0.25333333 -0.1000000016 0
0.2399999948 -0.1000000016 0
0.226666674 -0.1000000016 0
0.2133333384 -0.1000000016 0
0.2000000028 -0.1000000016 0
0.1866666676 -0.1000000016 0
0.173333332 -0.1000000016 0
0.1599999964 -0.1000000016 0
0.1466666608 -0.1000000016 0
0.1333333404 -0.1000000016 0
0.1199999972 -0.1000000016 0
0.1066666692 -0.1000000016 0
0.0933333336 -0.1000000016 0
0.0799999984 -0.1000000016 0
0.06666667 -0.1000000016 0
0.0533333348 -0.1000000016 0
0.03999999912 -0.1000000016 0
0.02666666732 -0.1000000016 0
0.01333333364 -0.1000000016 0
0.0 -0.1000000016 0
0.400000004 -0.1133333372 0
0.3866666556 -0.1133333372 0
0.3733333348 -0.1133333372 0
0.3600000144 -0.1133333372 0
0.346666664 -0.1133333372 0
0.3333333432 -0.1133333372 0
0.3199999928 -0.1133333372 0
0.3066666724 -0.1133333372 0
0.293333322 -0.1133333372 0
0.2800000012 -0.1133333372 0
0.2666666804 -0.1133333372 0
0.25333333 -0.1133333372 0
0.2399999948 -0.1133333372 0
0.226666674 -0.1133333372 0
0.2133333384 -0.1133333372 0
0.2000000028 -0.1133333372 0
0.1866666676 -0.1133333372 0
0.173333332 -0.1133333372 0
0.1599999964 -0.1133333372 0
0.1466666608 -0.1133333372 0
0.1333333404 -0.1133333372 0
0.1199999972 -0.1133333372 0
0.1066666692 -0.1133333372 0
0.0933333336 -0.1133333372 0
0.0799999984 -0.1133333372 0
0.06666667 -0.1133333372 0
0.0533333348 -0.1133333372 0
0.03999999912 -0.1133333372 0
0.02666666732 -0.1133333372 0
0.01333333364 -0.1133333372 0
0.0 -0.1133333372 0
0.400000004 -0.1266666652 0
0.3866666556 -0.1266666652 0
0.3733333348 -0.1266666652 0
[...]
POINT_DATA 961
SCALARS Temp float 1
LOOKUP_TABLE default
0.6794151513089046
0.7065511948779436
0.7260249776204506
0.7401843177505659
0.750558971909226
0.7581979284581122
0.7638480018361814
0.7680467205290007
0.7711853196771247
0.7735504620283847
0.7753546835384342
0.7767575044284163
0.7778808318745813
0.7788209473704651
0.7796574509613576
0.7804603565496959
0.7812965891859486
0.7822359577572383
0.7833574296261633
0.7847563089378786
0.7865529787384999
0.7889044104119431
0.792018834785107
0.7961765872751334
0.801758092927218
0.8092835821769574
0.8194696742135879
0.8333121572707668
0.8522120795518129
0.8782027677989375
0.9145095899383071
0.7171098515259304
0.7437186573673942
0.762983275972929
0.7770651079479151
0.7874041340096471
0.7950284625455407
0.8006741256858152
0.8048735202663615
0.8080151999825943
0.810384432373377
0.812193037091266
0.8136001974285936
0.8147277013944004
0.8156718279889186
0.8165122396080442
0.8173190506737971
0.8181593006766327
0.8191029123396465
0.8202289490967931
0.8216327682074247
0.8234347229594505
0.8257915957166316
0.8289111535228177
0.8330727605024254
0.8386549610010183
0.8461744026677682
0.8563408201866862
0.8701357709756782
0.8889306741503205
0.9146563703938079
0.9501095296674857
2.481940644738928
2.485893772899039
2.496911245604577
2.507072604039611
2.515475147974753
2.5221603577580067
2.5273945879093365
2.531465379533838
2.534627784626108
2.537093488560287
2.539033754519783
2.540586283819958
2.5418626509773863
2.542955257636776
2.543943521167599
2.5448994081877725
2.545892580874458
2.5469954441264813
2.548288366294906
2.549865397916788
2.551840807787681
2.5543566527896595
2.557591512061483
2.56177004220582
2.5671718616526302
2.574135209000656
2.583042277114434
2.5942472081988948
2.60780456654635
2.622500624151579
2.627776667517791
4.224777260141973
4.2269345087789
4.232229195495294
4.238845033159888
4.245117720351288
4.250555840058252
4.255079544890167
4.258764955669917
4.261737963670199
4.264131246618402
4.266067880566572
4.267656443045457
4.268991220687212
4.270154613135663
4.271220390396756
4.272257264942738
4.273332590166048
4.274516130753148
4.275883935248946
4.277522321113544
4.279531887396477
4.28203127545594
4.285159854268085
4.289077653951361
4.293958551072649
4.299968087413242
4.307205980276428
4.315564048301371
4.3243843719302495
4.331445365544272
4.334322252641994
5.962466582834119
5.963614588932108
5.966717148707648
5.970917852391967
5.975391147774843
5.979594120010334
5.9833033140347975
5.986465971345025
5.989112508104964
5.991309090753709
5.993133713433739
5.994664818397959
5.995976649907708
5.997138185359089
5.998213917267588
5.999265605172427
6.000354527647469
6.001543944463866
6.002901581547156
6.004501919337136
6.006427929366061
6.008771628199963
6.011632195441893
6.015109465328372
6.0192884760479215
6.024207258925501
6.029793431425146
6.035747074040051
6.0413423893732645
6.045476699874614
6.047006756423848
7.697050071706187
7.6977492264187015
7.699683750852035
7.70245339062877
7.705594902722208
7.708738756309684
7.711659302178187
7.714254727733012
7.716501509678853
7.718420038073778
7.720052840856681
7.721451931851058
7.72267209601356
7.723767833217953
7.724792456268398
7.725798442496498
7.726838473028444
7.72796675110899
7.729240284989549
7.730719785234631
7.732469690503974
7.73455658245756
7.737044731624394
7.739986878618147
7.743407120505177
7.747271607524745
7.751442569518282
7.755617348378124
7.759301667861173
7.761876532701089
7.762807344628509
9.42954284915648
9.429988059717965
9.431243196450959
9.43309855661528
9.43529199879074
9.437584097314335
9.439801216652727
9.441841583048594
9.443661250775875
9.445255217574614
9.446642077267711
9.447853392154059
9.448927096020212
9.449903823058527
9.450825168897158
9.45173317160386
9.452670494625874
9.453680892078863
9.45480960629512
9.456103314780796
9.457609137582178
9.459372040156468
9.461429643859955
9.463803220926641
9.466483326858892
9.469409124595023
9.47244311090423
9.475352238386892
9.477816022807255
9.479483949669918
9.480075773981078
11.160392436118151
11.16067910855047
11.16149623333945
11.16272936529437
11.164227344228326
11.16584079573626
11.167449206606573
11.168971492345298
11.170363765223499
11.171611054511203
11.172718247866399
11.173702640344207
11.174588671627536
11.175404608468016
11.176180672636951
11.17694815462555
11.177739120125663
11.178586354314245
11.179523230781378
11.180583166173808
11.181798254648989
11.183196586102955
11.184797611152337
11.186604973590374
11.188596429636844
11.190711614549867
11.192840938737735
11.19482249649521
11.196456161625703
11.197539658433902
11.19791993819838
12.889821126960674
12.889997957571246
12.890505677611861
12.891282433880116
12.892243710599235
12.893301674948386
12.894380661513136
12.895425300115022
12.896401808180206
12.897294942464912
12.89810338787742
12.898835292674677
12.899504750317586
12.90012936711313
12.90072873887852
12.901323593541107
12.901935350636759
12.902585847431405
12.90329700177264
12.904090164471725
12.904984880612687
12.90599675064368
12.907134052861661
12.90839295798822
12.909751480999248
12.911163231083023
12.912553307698591
12.91381994830228
12.914845367517996
12.915516377919872
12.915750202691195
14.617937262363018
14.618029600775508
14.618296188095439
14.618708395081573
14.619226254978738
14.619806894269246
14.620411785678586
14.621011143858496
14.62158532195427
14.622124000048188
14.622624317683073
14.623088795717422
14.62352354724289
14.623936947558148
14.62433873243705
14.624739430242116
14.625150010693272
14.625581618880197
14.626045271199342
14.626551380900908
14.627108969568164
14.627724421224201
14.628399644963597
14.62912964694302
14.629899713296103
14.630682868534045
14.631438775977118
14.632115560380543
14.632655670526052
14.6330055347996
14.633126809698423
16.344792796866358
16.344812099757448
16.344868815373157
16.34495958420411
16.345079468173875
16.34522272924685
16.345383598196197
16.345556869822868
16.345738266262508
16.345924569594768
16.346113594100373
16.34630405690376
16.34649540690394
16.346687650306542
16.346881185327
16.347076651472847
16.347274792331174
16.347476320773293
16.347681777669894
16.347891373956582
16.348104807830765
16.348321056166803
16.348538143285705
16.348752919164756
16.34896088774308
16.34915616638809
16.349331666280158
16.349479571769642
16.349592137327612
16.349662709951694
16.349686768942796
16.441141105157648
16.441157002570527
16.441203886969845
16.441279462913364
16.441380295312477
16.441502285352318
16.441641166649013
16.441792921224035
16.441954070623925
16.442121823024856
16.442294108167253
16.44246952651412
16.442647250493167
16.442826906529493
16.443008449528357
16.443192038066115
16.44337791383861
16.44356627981642
16.443757173697527
16.44395033232141
16.4441450448614
16.44433999935494
16.444533129659995
16.444721492213283
16.444901201202526
16.445067473902238
16.44521483137519
16.445337483286828
16.445429886008878
16.44548740225977
16.445506937144827
16.537390001861283
16.537403348574383
16.537442824667977
16.537506815740542
16.537592870686115
16.537698001313533
16.537819008341415
16.537952771075133
16.538096470192336
16.538247720838417
16.538404630257375
16.53856578879197
16.538730217042897
16.538897289090723
16.539066640411768
16.539238068818147
16.539411434075184
16.539586554129826
16.5397630982104
16.53994047630565
16.540117726358584
16.540293405955822
16.540465495793857
16.540631338824326
16.54078763264024
16.540930506725402
16.541055705140366
16.54115888156605
16.541235989165425
16.54128371399749
16.541299875983235
16.63354432154807
16.633555709618573
16.63358946903642
16.633644434237837
16.633718814245608
16.633810386234902
16.633916713538014
16.634035347965717
16.634163996691395
16.634300632868705
16.634443556556974
16.634591405941354
16.634743132209973
16.634897951377944
16.635055278554027
16.635214651883057
16.635375652382397
16.635537819525155
16.63570056494937
16.635863085995883
16.636024282101403
16.636182681147872
16.63633638168438
16.636483029421527
16.636619837371793
16.63674366859192
16.63685118926678
16.63693909022907
16.63700436045291
16.637044577031826
16.63705816478189
16.729607699496608
16.72961755104682
16.729646807734937
16.72969460723787
16.72975961096514
16.72984013197228
16.729934283216373
16.73004011972546
16.730155762469067
16.73027948644917
16.730409776520847
16.730545346862158
16.7306851318599
16.730828257183735
16.730973994020843
16.731121702309597
16.731270768938412
16.73142054163166
16.731570261886745
16.731718999676303
16.731865593470793
16.732008602067843
16.732146272408812
16.732276537238025
16.73239704653943
16.7325052441229
16.73259849078645
16.73267422920611
16.732730177255956
16.73276452541695
16.73277610888283
16.82558289212856
16.825591516170004
16.825617163637272
16.82565918149215
16.82571654700606
16.825787953992865
16.825871915238597
16.82596686316871
16.826071241582586
16.826183574221858
16.826302512637263
16.826426857697484
16.826555559304747
16.826687700163614
16.826822464776058
16.82695909819937
16.827096859918576
16.82723497379244
16.82737257768805
16.82750867577572
16.82764209691849
16.827771464676314
16.827895181527683
16.828011437731337
16.828118245410653
16.828213504834004
16.828295101454415
16.828361028428127
16.828409524544
16.828439210842152
16.82844920715856
16.918396437284912
16.918404063963767
16.918426770672607
16.918464051622564
16.91851510847563
16.918578909514057
16.918654261466727
16.918739881386944
16.918834464716685
16.91893673802735
16.91904549868721
16.919159635457007
16.919278132798215
16.919400062902398
16.919524565426677
16.91965081839412
16.9197780048886
16.91990527640333
16.920031716287255
16.92015630609649
16.92027789785477
16.920395196736383
16.92050675552298
16.920610988778446
16.920706205391244
16.920790663961
16.920862648485333
16.92092055959624
16.92096301397238
16.920988940356846
16.920997659996363
17.004952528241734
17.004959332455904
17.004979608376683
17.00501295565575
17.005058737957633
17.00511612420475
17.00518413965521
17.005261717673683
17.005347750472556
17.00544112947277
17.005540777613856
17.005645667841815
17.00575482959382
17.005867346151348
17.00598234210873
17.006098963574498
17.00621635503413
17.00633363348326
17.006449862900702
17.00656403150326
17.006675034254513
17.006781664232257
17.00688261328952
17.00697648819907
17.00706183990235
17.00713720894355
17.007201184290356
17.00725247159698
17.007289965613392
17.007312818652153
17.007320497074197
17.085220793851544
17.08522691263596
17.085245158789363
17.085275208626
17.085316544436758
17.085368483662307
17.085430215719775
17.08550083963982
17.085579402166847
17.08566492864349
17.08575644915429
17.08585301461057
17.08595370408461
17.0860576255635
17.08616390893924
17.086271693215554
17.086380111236316
17.08648827225395
17.086595244962783
17.086700043012456
17.086801614949486
17.086898841431157
17.08699053951053
17.08707547894707
17.087152407685373
17.08722008880852
17.0872773462966
17.087323116445617
17.087356501192932
17.087376817624897
17.087383638285274
17.159173010996163
17.159178554083926
17.159195092638505
17.159222359488197
17.15925992492186
17.15930721761511
17.159363551556435
17.159428153688147
17.15950019278834
17.159578803198578
17.159663105995396
17.159752222799145
17.15984528326303
17.159941427976833
17.160039805370268
17.160139564122492
17.160239843853514
17.16033976414103
17.160438414050862
17.160534843782067
17.16062805991143
17.160717026471154
17.160800671236245
17.160877901302435
17.160947624936266
17.161008781575653
17.16106037758628
17.161101525321673
17.161131482854074
17.16114969027086
17.161155798884838
17.22678306238258
17.2267881195311
17.226803214775572
17.22682812312445
17.226862480915052
17.226905801037105
17.22695749291311
17.227016883030657
17.22708323709836
17.227155778414932
17.22723370512606
17.227316202052393
17.22740244799626
17.227491619983994
17.22758289292164
17.227675435820082
17.227768406929137
17.22786094759035
17.22795217660471
17.228041186350946
17.228127041753893
17.228208783859365
17.22828543712533
17.228356023882604
17.22841958296238
17.22847519412735
17.22852200621964
17.228559267135097
17.22858635379816
17.22860279914957
17.228608313639032
17.28802692137007
17.28803156753046
17.28804544072851
17.288068347795267
17.288099975151745
17.28813990004991
17.288187605640044
17.288242496423887
17.28830391549791
17.288371158933654
17.28844348999952
17.2885201493443
17.28860036198002
17.288683342338103
17.288768295844033
17.28885441790755
17.288940892315555
17.289026888650717
17.289111560199636
17.289194043281285
17.289273458787456
17.289348917325665
17.289419526913473
17.289484406221
17.289542700462107
17.289593601430198
17.289636369880803
17.28967035881065
17.28969503638465
17.289710006301853
17.2897150238587
17.34288302073599
17.342887319758304
17.34290015983217
17.342921372005783
17.342950680990946
17.342987713600376
17.343032010317
17.343083037104808
17.343140199060713
17.343202851838306
17.34327031354156
17.343341873582414
17.343416799301437
17.34349434150014
17.343573737339263
17.343654211309005
17.343734975977288
17.343815231996878
17.343894168563622
17.343970965011792
17.34404479409913
17.34411482809444
17.344180246528143
17.344240248263016
17.34429406512733
17.344340978517163
17.344380337422116
17.344411576759903
17.344434235184494
17.344447970704373
17.34445257288996
17.39133157792275
17.391335585261515
17.39134755661688
17.39136734157256
17.39139469427043
17.3914292798634
17.391470683582614
17.391518419930744
17.391571943707863
17.391630659252492
17.391693930564124
17.391761089112837
17.391831440111677
17.39190426830968
17.391978841791286
17.39205441434694
17.3921302278985
17.392205514357542
17.392279497891423
17.392351398092813
17.392420434423784
17.392485832837874
17.392546833399305
17.392602701299978
17.39265273866628
17.392696298502095
17.392732799430174
17.392761740372336
17.392782714625444
17.392795422056675
17.39279967855291
17.43335552249719
17.43335928721361
17.433370535546885
17.4333891312888
17.433414851225077
17.43344739017971
17.43348636828922
17.433531338315174
17.433581794753454
17.43363718147151
17.43369690049444
17.433760318999532
17.43382677527832
17.433895584655886
17.433966043893875
17.434037434537924
17.434109026519266
17.434180081316025
17.434249855480584
17.434317604882466
17.434382589903585
17.434444082332657
17.434501372764963
17.434553780712836
17.434600664960698
17.43464143546602
17.434675565635647
17.43470260430821
17.434722187106566
17.4347340461586
17.43473801756639
17.46893965244826
17.468943218729184
17.46895387544563
17.468971497227113
17.46899587818851
17.469026735976545
17.46906371776256
17.46910640620923
17.469154327188434
17.469206956249828
17.469263726408833
17.469324034517864
17.46938724696538
17.469452705641142
17.469519732735584
17.46958763475767
17.46965570694713
17.46972323733762
17.46978951114793
17.46985381574243
17.469915446298465
17.469973712812738
17.47002794725561
17.470077512929684
17.47012181369173
17.47016030430394
17.470192500875097
17.47021799086237
17.470236442443408
17.4702476124524
17.470251352428757
17.498071342453247
17.4980747507823
17.498084936411786
17.49810178211441
17.49812509506239
17.498154610173277
17.498189995196405
17.498230855727307
17.49827674192876
17.498327154159604
17.498381550030558
17.49843935030893
17.49849994440497
17.498562696338418
17.49862694979181
17.49869203257926
17.49875726160562
17.498821947540545
17.498885399788765
17.498946931918585
17.49900586761539
17.49906154770921
17.499113337095704
17.499160633494252
17.499202875806933
17.499239553315988
17.49927021477999
17.499294477001058
17.499312032773833
17.49932265754724
17.49932621446426
17.520740205387916
17.520743493476974
17.520753320397663
17.520769574844856
17.520792073508154
17.520820563937946
17.52085472900647
17.52089419126571
17.52093851897362
17.52098723113688
17.521039804046335
17.52109567684493
17.521154256850895
17.52121492550562
17.5212770435839
17.52133995595711
17.52140299691004
17.521465495216425
17.52152677948523
17.52158618388469
17.521643054261567
17.521696755146003
17.521746676474518
17.521792241891944
17.521832916478346
17.52186821511632
17.521897710631496
17.52192104135002
17.521937918052316
17.52194812974835
17.5219515480183
17.5369380193698
17.536941222921886
17.536950797597342
17.53696663611573
17.536988561645934
17.537016330361386
17.53704963549376
17.53708811126388
17.537131338451523
17.537178849053632
17.537230132472587
17.5372846408573
17.537341794311455
17.537400986818113
17.53746159154203
17.537522965774453
17.537584456471322
17.537645405577898
17.537705155606314
17.53776305553601
17.537818467023172
17.537870771370265
17.53791937610007
17.537963722938237
17.538003295109423
17.538037625145677
17.53806630239028
17.538088979887053
17.538105380678676
17.538115303000602
17.53811862416449
17.54665905198392
17.546662205339306
17.54667163021714
17.546687221673753
17.54670880664432
17.546736146323568
17.546768939990073
17.546806828696525
17.5468494005813
17.546896195308364
17.546946710057227
17.547000404732998
17.547056707106282
17.54711501872027
17.54717472024059
17.547235176498216
17.547295742147124
17.547355767124206
17.547414602351033
17.54747160572711
17.547526148382477
17.547577621619077
17.54762544339269
17.54766906610671
17.547707983657663
17.5477417389217
17.547769930893875
17.547792221196808
17.547808340006803
17.547818090918465
17.5478213545697
17.549899773689795
17.549902910399254
17.549912285599124
17.549927795112037
17.549949267108964
17.549976464433747
17.550009088353207
17.5500467821699
17.550089136449877
17.550135693392075
17.55018595275376
17.550239377017437
17.55029539650849
17.55035341529561
17.55041281655532
17.55047296764576
17.550533225802116
17.550592943639188
17.55065147489232
17.550708180439326
17.550762434565886
17.55081363189627
17.55086119384433
17.55090457634457
17.550943276815634
17.55097684154167
17.55100487269283
17.551027034710415
17.55104306011229
17.55105275425085
17.551055998854512
