# vtk DataFile Version 2.0
Unstructured Grid Example
ASCII
DATASET UNSTRUCTURED_GRID

POINTS 961 float
0.400000004 0.01999999956 0
0.3866666556 0.01999999956 0
0.3733333348 0.01999999956 0
0.3600000144 0.01999999956 0
0.346666664 0.01999999956 0
0.3333333432 0.01999999956 0
0.3199999928 0.01999999956 0
0.3066666724 0.01999999956 0
0.293333322 0.01999999956 0
0.2800000012 0.01999999956 0
0.2666666804 0.01999999956 0
0.25333333 0.01999999956 0
0.2399999948 0.01999999956 0
0.226666674 0.01999999956 0
0.2133333384 0.01999999956 0
0.2000000028 0.01999999956 0
0.1866666676 0.01999999956 0
0.173333332 0.01999999956 0
0.1599999964 0.01999999956 0
0.1466666608 0.01999999956 0
0.1333333404 0.01999999956 0
0.1199999972 0.01999999956 0
0.1066666692 0.01999999956 0
0.0933333336 0.01999999956 0
0.0799999984 0.01999999956 0
0.06666667 0.01999999956 0
0.0533333348 0.01999999956 0
0.03999999912 0.01999999956 0
0.02666666732 0.01999999956 0
0.01333333364 0.01999999956 0
0.0 0.01999999956 0
0.400000004 0.00666666684 0
0.3866666556 0.00666666684 0
0.3733333348 0.00666666684 0
0.3600000144 0.00666666684 0
0.346666664 0.00666666684 0
0.3333333432 0.00666666684 0
0.3199999928 0.00666666684 0
0.3066666724 0.00666666684 0
0.293333322 0.00666666684 0
0.2800000012 0.00666666684 0
0.2666666804 0.00666666684 0
0.25333333 0.00666666684 0
0.2399999948 0.00666666684 0
0.226666674 0.00666666684 0
0.2133333384 0.00666666684 0
0.2000000028 0.00666666684 0
0.1866666676 0.00666666684 0
0.173333332 0.00666666684 0
0.1599999964 0.00666666684 0
0.1466666608 0.00666666684 0
0.1333333404 0.00666666684 0
0.1199999972 0.00666666684 0
0.1066666692 0.00666666684 0
0.0933333336 0.00666666684 0
0.0799999984 0.00666666684 0
0.06666667 0.00666666684 0
0.0533333348 0.00666666684 0
0.03999999912 0.00666666684 0
0.02666666732 0.00666666684 0
0.01333333364 0.00666666684 0
0.0 0.00666666684 0
0.400000004 -0.00666666684 0
0.3866666556 -0.00666666684 0
0.3733333348 -0.00666666684 0
0.3600000144 -0.00666666684 0
0.346666664 -0.00666666684 0
0.3333333432 -0.00666666684 0
0.3199999928 -0.00666666684 0
0.3066666724 -0.00666666684 0
0.293333322 -0.00666666684 0
0.2800000012 -0.00666666684 0
0.2666666804 -0.00666666684 0
0.25333333 -0.00666666684 0
0.2399999948 -0.00666666684 0
0.226666674 -0.00666666684 0
0.2133333384 -0.00666666684 0
0.2000000028 -0.00666666684 0
0.1866666676 -0.00666666684 0
0.173333332 -0.00666666684 0
0.1599999964 -0.00666666684 0
0.1466666608 -0.00666666684 0
0.1333333404 -0.00666666684 0
0.1199999972 -0.00666666684 0
0.1066666692 -0.00666666684 0
0.0933333336 -0.00666666684 0
0.0799999984 -0.00666666684 0
0.06666667 -0.00666666684 0
0.0533333348 -0.00666666684 0
0.03999999912 -0.00666666684 0
0.02666666732 -0.00666666684 0
0.01333333364 -0.00666666684 0
0.0 -0.00666666684 0
0.400000004 -0.01999999956 0
0.3866666556 -0.01999999956 0
0.3733333348 -0.01999999956 0
0.3600000144 -0.01999999956 0
0.346666664 -0.01999999956 0
0.3333333432 -0.01999999956 0
0.3199999928 -0.01999999956 0
0.3066666724 -0.01999999956 0
0.293333322 -0.01999999956 0
0.2800000012 -0.01999999956 0
0.2666666804 -0.01999999956 0
0.25333333 -0.01999999956 0
0.2399999948 -0.01999999956 0
0.226666674 -0.01999999956 0
0.2133333384 -0.01999999956 0
0.2000000028 -0.01999999956 0
0.1866666676 -0.01999999956 0
0.173333332 -0.01999999956 0
0.1599999964 -0.01999999956 0
0.1466666608 -0.01999999956 0
0.1333333404 -0.01999999956 0
0.1199999972 -0.01999999956 0
0.1066666692 -0.01999999956 0
0.0933333336 -0.01999999956 0
0.0799999984 -0.01999999956 0
0.06666667 -0.01999999956 0
0.0533333348 -0.01999999956 0
0.03999999912 -0.01999999956 0
0.02666666732 -0.01999999956 0
0.01333333364 -0.01999999956 0
0.0 -0.01999999956 0
0.400000004 -0.03333333508 0
0.3866666556 -0.03333333508 0
0.3733333348 -0.03333333508 0
0.3600000144 -0.03333333508 0
0.346666664 -0.03333333508 0
0.3333333432 -0.03333333508 0
0.3199999928 -0.03333333508 0
0.3066666724 -0.03333333508 0
0.293333322 -0.03333333508 0
0.2800000012 -0.03333333508 0
0.2666666804 -0.03333333508 0
0.25333333 -0.03333333508 0
0.2399999948 -0.03333333508 0
0.226666674 -0.03333333508 0
0.2133333384 -0.03333333508 0
0.2000000028 -0.03333333508 0
0.1866666676 -0.03333333508 0
0.173333332 -0.03333333508 0
0.1599999964 -0.03333333508 0
0.1466666608 -0.03333333508 0
0.1333333404 -0.03333333508 0
0.1199999972 -0.03333333508 0
0.1066666692 -0.03333333508 0
0.0933333336 -0.03333333508 0
0.0799999984 -0.03333333508 0
0.06666667 -0.03333333508 0
0.0533333348 -0.03333333508 0
0.03999999912 -0.03333333508 0
0.02666666732 -0.03333333508 0
0.01333333364 -0.03333333508 0
0.0 -0.03333333508 0
0.400000004 -0.0466666668 0
0.3866666556 -0.0466666668 0
0.3733333348 -0.0466666668 0
0.3600000144 -0.0466666668 0
0.346666664 -0.0466666668 0
0.3333333432 -0.0466666668 0
0.3199999928 -0.0466666668 0
0.3066666724 -0.0466666668 0
0.293333322 -0.0466666668 0
0.2800000012 -0.0466666668 0
0.2666666804 -0.0466666668 0
0.25333333 -0.0466666668 0
0.2399999948 -0.0466666668 0
0.226666674 -0.0466666668 0
0.2133333384 -0.0466666668 0
0.2000000028 -0.0466666668 0
0.1866666676 -0.0466666668 0
0.173333332 -0.0466666668 0
0.1599999964 -0.0466666668 0
0.1466666608 -0.0466666668 0
0.1333333404 -0.0466666668 0
0.1199999972 -0.0466666668 0
0.1066666692 -0.0466666668 0
0.0933333336 -0.0466666668 0
0.0799999984 -0.0466666668 0
0.06666667 -0.0466666668 0
0.0533333348 -0.0466666668 0
0.03999999912 -0.0466666668 0
0.02666666732 -0.0466666668 0
0.01333333364 -0.0466666668 0
0.0 -0.0466666668 0
0.400000004 -0.0599999988 0
0.3866666556 -0.0599999988 0
0.3733333348 -0.0599999988 0
0.3600000144 -0.0599999988 0
0.346666664 -0.0599999988 0
0.3333333432 -0.0599999988 0
0.3199999928 -0.0599999988 0
0.3066666724 -0.0599999988 0
0.293333322 -0.0599999988 0
0.2800000012 -0.0599999988 0
0.2666666804 -0.0599999988 0
0.25333333 -0.0599999988 0
0.2399999948 -0.0599999988 0
0.226666674 -0.0599999988 0
0.2133333384 -0.0599999988 0
0.2000000028 -0.0599999988 0
0.1866666676 -0.0599999988 0
0.173333332 -0.0599999988 0
0.1599999964 -0.0599999988 0
0.1466666608 -0.0599999988 0
0.1333333404 -0.0599999988 0
0.1199999972 -0.0599999988 0
0.1066666692 -0.0599999988 0
0.0933333336 -0.0599999988 0
0.0799999984 -0.0599999988 0
0.06666667 -0.0599999988 0
0.0533333348 -0.0599999988 0
0.03999999912 -0.0599999988 0
0.02666666732 -0.0599999988 0
0.01333333364 -0.0599999988 0
0.0 -0.0599999988 0
0.400000004 -0.0733333304 0
0.3866666556 -0.0733333304 0
0.3733333348 -0.0733333304 0
0.3600000144 -0.0733333304 0
0.346666664 -0.0733333304 0
0.3333333432 -0.0733333304 0
0.3199999928 -0.0733333304 0
0.3066666724 -0.0733333304 0
0.293333322 -0.0733333304 0
0.2800000012 -0.0733333304 0
0.2666666804 -0.0733333304 0
0.25333333 -0.0733333304 0
0.2399999948 -0.0733333304 0
0.226666674 -0.0733333304 0
0.2133333384 -0.0733333304 0
0.2000000028 -0.0733333304 0
0.1866666676 -0.0733333304 0
0.173333332 -0.0733333304 0
0.1599999964 -0.0733333304 0
0.1466666608 -0.0733333304 0
0.1333333404 -0.0733333304 0
0.1199999972 -0.0733333304 0
0.1066666692 -0.0733333304 0
0.0933333336 -0.0733333304 0
0.0799999984 -0.0733333304 0
0.06666667 -0.0733333304 0
0.0533333348 -0.0733333304 0
0.03999999912 -0.0733333304 0
0.02666666732 -0.0733333304 0
0.01333333364 -0.0733333304 0
0.0 -0.0733333304 0
0.400000004 -0.086666666 0
0.3866666556 -0.086666666 0
0.3733333348 -0.086666666 0
0.3600000144 -0.086666666 0
0.346666664 -0.086666666 0
0.3333333432 -0.086666666 0
0.3199999928 -0.086666666 0
0.3066666724 -0.086666666 0
0.293333322 -0.086666666 0
0.2800000012 -0.086666666 0
0.2666666804 -0.086666666 0
0.25333333 -0.086666666 0
0.2399999948 -0.086666666 0
0.226666674 -0.086666666 0
0.2133333384 -0.086666666 0
0.2000000028 -0.086666666 0
0.1866666676 -0.086666666 0
0.173333332 -0.086666666 0
0.1599999964 -0.086666666 0
0.1466666608 -0.086666666 0
0.1333333404 -0.086666666 0
0.1199999972 -0.086666666 0
0.1066666692 -0.086666666 0
0.0933333336 -0.086666666 0
0.0799999984 -0.086666666 0
0.06666667 -0.086666666 0
0.0533333348 -0.086666666 0
0.03999999912 -0.086666666 0
0.02666666732 -0.086666666 0
0.01333333364 -0.086666666 0
0.0 -0.086666666 0
0.400000004 -0.1000000016 0
0.3866666556 -0.1000000016 0
0.3733333348 -0.1000000016 0
0.3600000144 -0.1000000016 0
0.346666664 -0.1000000016 0
0.3333333432 -0.1000000016 0
0.3199999928 -0.1000000016 0
0.3066666724 -0.1000000016 0
0.293333322 -0.1000000016 0
0.2800000012 -0.1000000016 0
0.2666666804 -0.1000000016 0
0.25333333 -0.1000000016 0
0.2399999948 -0.1000000016 0
0.226666674 -0.1000000016 0
0.2133333384 -0.1000000016 0
0.2000000028 -0.1000000016 0
0.1866666676 -0.1000000016 0
0.173333332 -0.1000000016 0
0.1599999964 -0.1000000016 0
0.1466666608 -0.1000000016 0
0.1333333404 -0.1000000016 0
0.1199999972 -0.1000000016 0
0.1066666692 -0.1000000016 0
0.0933333336 -0.1000000016 0
0.0799999984 -0.1000000016 0
0.06666667 -0.1000000016 0
0.0533333348 -0.1000000016 0
0.03999999912 -0.1000000016 0
0.02666666732 -0.1000000016 0
0.01333333364 -0.1000000016 0
0.0 -0.1000000016 0
0.400000004 -0.1133333372 0
0.3866666556 -0.1133333372 0
0.3733333348 -0.1133333372 0
0.3600000144 -0.1133333372 0
0.346666664 -0.1133333372 0
0.3333333432 -0.1133333372 0
0.3199999928 -0.1133333372 0
0.3066666724 -0.1133333372 0
0.293333322 -0.1133333372 0
0.2800000012 -0.1133333372 0
0.2666666804 -0.1133333372 0
0.25333333 -0.1133333372 0
0.2399999948 -0.1133333372 0
0.226666674 -0.1133333372 0
0.2133333384 -0.1133333372 0
0.2000000028 -0.1133333372 0
0.1866666676 -0.1133333372 0
0.173333332 -0.1133333372 0
0.1599999964 -0.1133333372 0
0.1466666608 -0.1133333372 0
0.1333333404 -0.1133333372 0
0.1199999972 -0.1133333372 0
0.1066666692 -0.1133333372 0
0.0933333336 -0.1133333372 0
0.0799999984 -0.1133333372 0
0.06666667 -0.1133333372 0
0.0533333348 -0.1133333372 0
0.03999999912 -0.1133333372 0
0.02666666732 -0.1133333372 0
0.01333333364 -0.1133333372 0
0.0 -0.1133333372 0
0.400000004 -0.1266666652 0
0.3866666556 -0.1266666652 0
0.3733333348 -0.1266666652 0
[...]
POINT_DATA 961
SCALARS Temp float 1
LOOKUP_TABLE default
0.7399558176019619
0.7695099300164209
0.7907191268328257
0.8061404081082029
0.8174398232940037
0.8257598206407473
0.8319137526581108
0.8364870395156694
0.839905773713648
0.8424821580011759
0.8444476634959504
0.8459760216460904
0.8471999992841865
0.848224454115008
0.8491360759609833
0.8500111143615854
0.8509224549064672
0.8519461242362101
0.853168123913434
0.8546922484941206
0.8566496067587911
0.8592111568525367
0.8626036847934427
0.8671325071685453
0.8732119498737805
0.8814086028080843
0.8925029450856
0.9075795013582176
0.9281641679741492
0.9564714598120468
0.9960141610503587
0.7810087038672643
0.8099885922312456
0.8309699905533651
0.8463068625176933
0.8575674827927071
0.8658715589468019
0.8720207002806413
0.876594737887458
0.880016843704373
0.8825977007482837
0.8845679997908059
0.8861011051003633
0.8873296534846213
0.8883584996849041
0.8892744011752902
0.8901537167121849
0.8910694562603027
0.8920977701768615
0.8933247643948992
0.8948542910589017
0.8968174262853064
0.8993849221067287
0.9027830591871642
0.9073160960297806
0.913396310003134
0.9215863887122353
0.9326593130184854
0.9476841083257103
0.9681544010655299
0.9961730871759975
1.0347860359965835
2.7030658523171667
2.7073713393504435
2.719370861252624
2.7304381782613047
2.739590136002273
2.746871895685166
2.7525735319401727
2.7570081946319496
2.7604536497397945
2.763140432169597
2.7652550523318205
2.766947467648251
2.768339180117556
2.7695308099643654
2.7706088358032
2.77165162139034
2.772735020703826
2.773937875048623
2.775347699204376
2.777066909949086
2.7792199447346904
2.78196150621075
2.785486074763008
2.790038315187141
2.795922752558929
2.8035077561420603
2.8132095656866425
2.8254138681753465
2.8401800699952924
2.856186246183955
2.8619326309198803
4.601168035132404
4.603517669813518
4.609284626490352
4.616490762930142
4.623323461438573
4.629247498640291
4.634175893420465
4.638191529698767
4.641431495617037
4.644040269221588
4.646151870021873
4.647884525828324
4.649340898977421
4.650610704652891
4.6517742587225905
4.6529063684013
4.654080360575189
4.655372188453762
4.6568646495213315
4.658651725992157
4.660842955310033
4.663567526204706
4.666977203388242
4.6712462551774285
4.676564031321709
4.683110804672396
4.690995157469923
4.70009924465534
4.7097064883155015
4.717397286418597
4.720530741783768
6.493662773815356
6.494913291485793
6.498292955921857
6.502869034726493
6.507742397149261
6.512321730613515
6.516363645195624
6.5198106550071095
6.522695857734897
6.525091284495954
6.527081845791381
6.528752938096582
6.53018538399677
6.531454268415469
6.532629790638747
6.533779172702873
6.534969112513237
6.53626846583084
6.537750953083288
6.5394976520409545
6.54159888949886
6.544154844897118
6.547273500792137
6.55106355459695
6.555617590943029
6.560977000155385
6.567062920216378
6.573548675358383
6.579643758870351
6.584147199038717
6.585813843000136
8.382772909118072
8.383534638342905
8.3856423634365
8.388660153425356
8.392083469385941
8.395509829301597
8.398693448712855
8.401523410094791
8.403974057409723
8.406067557300458
8.407850183656949
8.409378538579944
8.410712239678304
8.411910592019376
8.413031606264305
8.414132382099123
8.415270240682997
8.416504161000756
8.417896177618612
8.419512358477265
8.4214228334511
8.423700068449605
8.4264140146653
8.429622068558356
8.43335043325117
8.437562203904431
8.442107297109473
8.446656050112228
8.450670109061715
8.453475291524649
8.454489341044079
10.269603502801925
10.2700887211725
10.271456704490925
10.2734790516874
10.27587024266558
10.278369490130348
10.28078765286688
10.283013848941627
10.285000172029928
10.28674112451568
10.288256903104152
10.289581824711886
10.290757142164841
10.291827046651303
10.29283677443801
10.293832042270322
10.294859247337513
10.295965974720762
10.297201431060854
10.298616387460608
10.300262099020323
10.30218747687547
10.304433436680778
10.307023091594807
10.309946104611896
10.31313617049321
10.316443490173452
10.31961421084972
10.322299256601678
10.324116852126433
10.324761762486494
12.154641453033165
12.154954070949875
12.155845205473964
12.157190199594494
12.158824400829884
12.160585093158517
12.162340985648482
12.16400372214459
12.165525451095135
12.166889808513604
12.168102052887717
12.169180950885643
12.170153046305362
12.171049047714469
12.171901790382318
12.172745271795586
12.173614332869668
12.174544598122386
12.175572333774825
12.176733854630378
12.178064037629323
12.179593401874813
12.1813430611897
12.183316918524454
12.185490687372933
12.187798568734083
12.190121158228287
12.192282079966533
12.19406333913026
12.195244608460662
12.195659184245716
14.038128380311736
14.038321436696933
14.03887579962359
14.039724088508864
14.040774230567088
14.041930530551799
14.043110535557346
14.044253887617053
14.045323731965171
14.046303397736583
14.04719137674521
14.04799646160409
14.04873391490194
14.049422821090005
14.05008442836144
14.050741215799798
14.051416414683933
14.052133711227334
14.05291688041135
14.053789081665283
14.054771510757284
14.055881071247914
14.057126696786105
14.058504140121023
14.05998938664789
14.061531848116351
14.063049893659743
14.064432645057927
14.065551782616282
14.066284004369258
14.066539139773603
15.920181818316141
15.920282925530326
15.920574884051417
15.921026495658317
15.921594202701678
15.922231270444803
15.92289568693549
15.923554950906155
15.92418759359116
15.924782295529424
15.925335853662844
15.925850918917801
15.926334048662309
15.926794259324783
15.927242045436367
15.927688762258427
15.928146244497324
15.92862651781856
15.929141468898624
15.929702329889427
15.93031882078448
15.930997793666426
15.93174123258046
15.932543610244144
15.933388820790714
15.934247412562057
15.935075391365103
15.935816206263716
15.936407135339653
15.936789802374907
15.936922428301042
17.800857913486688
17.800879553516573
17.800943167480707
17.801045076329686
17.801179868589458
17.80134124867714
17.801522874753076
17.801719007525886
17.801924906815092
17.802136976729916
17.802352736572747
17.802570680997043
17.802790094806337
17.80301086428265
17.803233298464157
17.803457966292015
17.803685548610876
17.8039166927584
17.80415186009752
17.80439115540513
17.804634129133763
17.804879551614857
17.80512516238846
17.80536742994516
17.805601365774326
17.80582048125869
17.806016985050523
17.80618230592282
17.806307961424128
17.80638667193361
17.80641349348638
17.905787642743853
17.905805581586932
17.905858511453655
17.905943911935285
17.9060580080695
17.90619628899821
17.90635404892172
17.906526840691544
17.906710793762795
17.90690277516826
17.907100428698133
17.907302120583218
17.907506833062993
17.90771403726688
17.907923557833264
17.908135438290707
17.908349811223086
17.908566766982332
17.908786217290373
17.909007748987086
17.909230465513755
17.909452821162482
17.90967245557691
17.909886060843384
17.910089311944198
17.910276917187552
17.91044283772176
17.910580707425048
17.91068444143125
17.910748955090792
17.910770857077473
18.010607646640537
18.010622822001736
18.010667726784693
18.01074058184217
18.010838683104236
18.010958728231177
18.01109717225428
18.011250543627963
18.011415687777912
18.011589912834268
18.011771053555503
18.011957462605967
18.012147954158742
18.012341721668136
18.012538238932088
18.012737153547942
18.012938179078535
18.013140983482373
18.01334507414781
18.013549678973817
18.01375362491854
18.013955221466304
18.014152156703418
18.01434143238827
18.014519356743044
18.014681629666192
18.014823542646422
18.01494030089762
18.01502744866195
18.015081341791923
18.015099584838627
18.115323161136967
18.11533622474319
18.11537496747255
18.115438098319302
18.11552363102065
18.11562909521599
18.115751774492864
18.11588892731659
18.11603796972468
18.11619659660398
18.116362849240303
18.116535128653236
18.116712169424872
18.116892988669562
18.117076815840484
18.11726301128276
18.117450980470903
18.117640083567885
18.117829542955263
18.118018350566693
18.11820517828643
18.118388299214722
18.118565525995248
18.118734186609437
18.118891147433132
18.11903290446828
18.119155751048243
18.11925601992217
18.11933038184111
18.11937616193728
18.11939162286236
18.21993810246695
18.219949521196305
18.2199834453365
18.22003891321985
18.220114429752883
18.220208106086638
18.220317821723373
18.22044137995766
18.220576643763323
18.22072163256971
18.220874584302123
18.221033977748405
18.22119852387346
18.221367135816
18.22153888050252
18.221712918270683
18.221888437172485
18.22206458253238
18.222240385484945
18.22241469342489
18.222586106205217
18.22275292521879
18.222913119657303
18.223064325418495
18.22320388051558
18.223328909653457
18.22343645938851
18.223523678571937
18.223588029647793
18.223627504236784
18.223640810995978
18.324455415675832
18.32446553352215
18.32449563446065
18.324544983591966
18.324612427901872
18.324696490554487
18.324795483121807
18.324907615854308
18.3250310986177
18.325164216448815
18.32530538299695
18.325453165170345
18.325606284130856
18.32576359919403
18.32592407559417
18.326086741090712
18.326250637425773
18.326414767455653
18.326578041957188
18.32673922932112
18.3268969118349
18.32704945464118
18.32719498993402
18.327331428144923
18.327456496298847
18.327567811428324
18.327662987337256
18.327739768942504
18.327796183284505
18.32783068893384
18.327842303359787
18.42551881931085
18.42552788954753
18.425554903141798
18.425599284314487
18.4256601223683
18.425736236525047
18.425826254859206
18.425928693245815
18.426042030570702
18.426164767093493
18.426295469026776
18.426432792251543
18.42657548838175
18.426722397743994
18.426872428920916
18.427024528662667
18.427177647399912
18.42733070106007
18.427482533005488
18.427631879124924
18.427777339310097
18.427917360311195
18.428050231155694
18.428174100204696
18.428287011897005
18.42838696836565
18.428472013004697
18.428540330790018
18.42859035738317
18.428620884351886
18.428631147239198
18.519748178074526
18.519756388660642
18.51978086278003
18.519821138321394
18.519876479092652
18.519945920154367
18.520028324187912
18.520122438574766
18.520226951789468
18.520340538321488
18.520461895304948
18.52058976399771
18.52072293828001
18.520860263509746
18.521000624563644
18.521142925954045
18.521286068500107
18.521428922972255
18.521570304122825
18.521708947735828
18.52184349334621
18.52197247663629
18.52209433168222
18.522207410233456
18.5223100149332
18.522400450157928
18.522477087269934
18.522538439963547
18.522583243999406
18.522610532449804
18.522619697701796
18.60711171157304
18.607119209140233
18.60714157272532
18.60717842262735
18.607229150058348
18.607292949345652
18.60736885880877
18.607455802473226
18.607552632741953
18.607658165035375
18.60777120776407
18.607890581245712
18.60801512718787
18.60814371131893
18.60827521751299
18.6084085356063
18.608542546713483
18.608676106135242
18.608808026789415
18.608937065332643
18.609061913049878
18.609181194694976
18.609293474749293
18.609397276954724
18.6094911134862
18.609573526613012
18.609643139775816
18.609698714630326
18.609739210034263
18.609763836672784
18.609772101462944
18.687580784997685
18.68758768637583
18.687608282288164
18.687642253586926
18.687689085674414
18.6877480917384
18.6878184428737
18.68789919893458
18.68798934120875
18.688087799298508
18.68819347573241
18.6883052624539
18.68842205052696
18.68854273517465
18.688666214230466
18.68879138168549
18.688917119571105
18.689042287959907
18.689165715544192
18.68928619250665
18.68940246725458
18.68951324953909
18.689617218954623
18.689713043740568
18.689799406055656
18.689875036120156
18.689938752446295
18.689989505460986
18.690026421720997
18.690048844176236
18.690056364506027
18.761129771601425
18.76113617181999
18.76115527974986
18.761186821273654
18.7612303522245
18.761285275424523
18.761350863266568
18.761426280847864
18.76151061135699
18.76160287715153
18.761702060155667
18.761807116237314
18.761916984764852
18.762030595163708
18.762146868424068
18.76226471486253
18.762383030908975
18.762500694438497
18.762616560683142
18.762729460039104
18.762838198919752
18.762941565658874
18.763038340158083
18.763127311532422
18.763207299924105
18.76327718462753
18.763335936076004
18.763382649604765
18.76341657907196
18.7634371670078
18.763444068562855
18.82773591330726
18.827741891245665
18.827759743951646
18.827789231146653
18.827829961854647
18.827881407115413
18.82794291723815
18.82801373942416
18.828093037838187
18.82817991037119
18.828273405776883
18.828372536299504
18.828476286922257
18.828583622864716
18.828693493233487
18.82880483184828
18.82891655763727
18.82902757391045
18.829136768185705
18.82924301355075
18.82934517237437
18.829442103975232
18.829532674757846
18.829615774586248
18.829690335661752
18.829755355904844
18.82980992470133
18.829853249405822
18.829884681314923
18.82990373862644
18.829910124489956
18.887379572786923
18.887385195227914
18.887401990225925
18.887429743147358
18.887468103510816
18.88751659465802
18.887574627217617
18.887641512779826
18.887716480087043
18.887798688602864
18.887887243152715
18.88798120514447
18.888079601462202
18.88818143253058
18.888285677454373
18.88839129704821
18.888497236849993
18.88860242926487
18.888705796220954
18.888806253052017
18.888902714159663
18.888994101762552
18.88907935613767
18.889157450766675
18.88922740879364
18.88928832270695
18.88933937537424
18.88937986119
18.889409206498698
18.88942698740275
18.88943294362749
18.94004333134444
18.940048655935104
18.94006456406387
18.940090860643103
18.940127226182902
18.940173224310552
18.940228312526838
18.940291853046272
18.940363126154903
18.940441341425053
18.940525650461744
18.940615157014488
18.940708925526557
18.940805989525902
18.94090535778756
18.941006018929997
18.94110694630155
18.941207102185718
18.94130544247162
18.941400922296943
18.941492503016846
18.941579161580748
18.941659900669187
18.941733762735275
18.94179984450825
18.941857313813156
18.941905427059265
18.94194354643269
18.941971156277038
18.941987877190396
18.94199347689877
18.985712816814036
18.985717894257757
18.985733066037312
18.985758151986218
18.985792856361275
18.9858367738363
18.985889398320918
18.98595013176655
18.98601829546025
18.98609313951253
18.986173854178276
18.986259579108808
18.986349411593327
18.986442415123935
18.986537626251312
18.986634060280625
18.986730717478896
18.986826588738523
18.986920661660815
18.98701192740749
18.987099388525962
18.98718206866185
18.9872590224902
18.987329348806664
18.98739220347969
18.987446814075923
18.987492494689914
18.987528660220374
18.98755483980366
18.987570688230612
18.98757599467382
19.024375601752197
19.024380477470203
19.024395047935222
19.024419144318724
19.02445248898062
19.024494700383226
19.024545300527226
19.024603722303823
19.024669319292855
19.02474137399451
19.02481910808845
19.024901691030646
19.02498824803361
19.025077868712454
19.02516961440222
19.025262524614153
19.025355624159594
19.025447929828477
19.02553845744705
19.02562622954393
19.025710283722027
19.025789682525932
19.025863523133772
19.025930949660715
19.025991164902152
19.02604344329636
19.02608714377729
19.02612172191231
19.02614674119484
19.026161882529774
19.02616695142278
19.05602179249964
19.056026507910214
19.056040600341397
19.056063909454426
19.05609617120288
19.056137021989322
19.05618600512455
19.0562425771523
19.05630611657776
19.05637593119827
19.05645126758559
19.056531319193862
19.056615234128806
19.05670212382031
19.056791070640866
19.056881134877404
19.05697136247825
19.057060792423787
19.0571484644418
19.057233427210367
19.05731474706773
19.0573915179295
19.057462870749315
19.05752798519365
19.05758610046566
19.057636527031555
19.05767865802646
19.057711979844658
19.05773608189538
19.057750664710618
19.05775554604275
19.080643492432237
19.08064808596524
19.080661814855862
19.080684524921626
19.08071596199582
19.080755775566036
19.080803524560398
19.080858682964735
19.080920647806778
19.080988745859116
19.081062242570624
19.08114034982248
19.081222233535737
19.08130702234286
19.081393815396265
19.08148168967959
19.081569708165564
19.081656927644453
19.08174240687009
19.081825215105397
19.081904441033217
19.08197920266958
19.082048656626387
19.082112009309064
19.08216852706794
19.08221754703613
19.082258487508525
19.08229085744386
19.082314265146778
19.082328425418016
19.082333164896227
19.098234573232624
19.098239081157264
19.098252554640194
19.098274843673273
19.098305700800648
19.09834478442188
19.098391664140305
19.098445825920496
19.09850667958422
19.098573565102008
19.098645761157925
19.098722492669054
19.098802938279213
19.098886239019112
19.09897150622855
19.09905782907914
19.099144282988238
19.099229937733565
19.099313865865884
19.09939515146168
19.09947289914658
19.099546243985063
19.09961436059342
19.09967647400353
19.09973186935649
19.09977990214292
19.099820007898312
19.099851710985824
19.099874632571616
19.099888497147553
19.099893137378928
19.108790903293226
19.108795360416003
19.10880868231455
19.10883072140061
19.108861234113252
19.10889988403379
19.108946246987745
19.108999815943463
19.109060008232028
19.109126171605638
19.10919759259318
19.10927350388325
19.109353091750332
19.109435504704095
19.10951986147153
19.1096052586345
19.109690779182966
19.109775500785595
19.10985850434684
19.109938882869432
19.11001575053368
19.110088252565184
19.110155574255174
19.110216951626963
19.110271680863395
19.110319128203326
19.110358739245825
19.1103900473233
19.110412681075864
19.110426370618683
19.110430952110672
19.112309943972395
19.112314384253636
19.112327655896607
19.112349612105998
19.112380010597867
19.112418516654056
19.112464708144476
19.112518080342344
19.11257805305464
19.112643976605177
19.112715140122017
19.112790778875908
19.112870081684207
19.112952199555828
19.113036253692005
19.113121343160223
19.11320655349148
19.113290965000424
19.113373661387904
19.11345373863784
19.11353031411318
19.11360253641511
19.11366959437207
19.113730727640817
19.113785236046702
19.11383248936792
19.11387193651234
19.11390311375771
19.113925652196016
19.1139392837858
19.11394384583073
