# vtk DataFile Version 2.0
Unstructured Grid Example
ASCII
DATASET UNSTRUCTURED_GRID

POINTS 961 float
0.400000004 0.01999999956 0
0.3866666556 0.01999999956 0
0.3733333348 0.01999999956 0
0.3600000144 0.01999999956 0
0.346666664 0.01999999956 0
0.3333333432 0.01999999956 0
0.3199999928 0.01999999956 0
0.3066666724 0.01999999956 0
0.293333322 0.01999999956 0
0.2800000012 0.01999999956 0
0.2666666804 0.01999999956 0
0.25333333 0.01999999956 0
0.2399999948 0.01999999956 0
0.226666674 0.01999999956 0
0.2133333384 0.01999999956 0
0.2000000028 0.01999999956 0
0.1866666676 0.01999999956 0
0.173333332 0.01999999956 0
0.1599999964 0.01999999956 0
0.1466666608 0.01999999956 0
0.1333333404 0.01999999956 0
0.1199999972 0.01999999956 0
0.1066666692 0.01999999956 0
0.0933333336 0.01999999956 0
0.0799999984 0.01999999956 0
0.06666667 0.01999999956 0
0.0533333348 0.01999999956 0
0.03999999912 0.01999999956 0
0.02666666732 0.01999999956 0
0.01333333364 0.01999999956 0
0.0 0.01999999956 0
0.400000004 0.00666666684 0
0.3866666556 0.00666666684 0
0.3733333348 0.00666666684 0
0.3600000144 0.00666666684 0
0.346666664 0.00666666684 0
0.3333333432 0.00666666684 0
0.3199999928 0.00666666684 0
0.3066666724 0.00666666684 0
0.293333322 0.00666666684 0
0.2800000012 0.00666666684 0
0.2666666804 0.00666666684 0
0.25333333 0.00666666684 0
0.2399999948 0.00666666684 0
0.226666674 0.00666666684 0
0.2133333384 0.00666666684 0
0.2000000028 0.00666666684 0
0.1866666676 0.00666666684 0
0.173333332 0.00666666684 0
0.1599999964 0.00666666684 0
0.1466666608 0.00666666684 0
0.1333333404 0.00666666684 0
0.1199999972 0.00666666684 0
0.1066666692 0.00666666684 0
0.0933333336 0.00666666684 0
0.0799999984 0.00666666684 0
0.06666667 0.00666666684 0
0.0533333348 0.00666666684 0
0.03999999912 0.00666666684 0
0.02666666732 0.00666666684 0
0.01333333364 0.00666666684 0
0.0 0.00666666684 0
0.400000004 -0.00666666684 0
0.3866666556 -0.00666666684 0
0.3733333348 -0.00666666684 0
0.3600000144 -0.00666666684 0
0.346666664 -0.00666666684 0
0.3333333432 -0.00666666684 0
0.3199999928 -0.00666666684 0
0.3066666724 -0.00666666684 0
0.293333322 -0.00666666684 0
0.2800000012 -0.00666666684 0
0.2666666804 -0.00666666684 0
0.25333333 -0.00666666684 0
0.2399999948 -0.00666666684 0
0.226666674 -0.00666666684 0
0.2133333384 -0.00666666684 0
0.2000000028 -0.00666666684 0
0.1866666676 -0.00666666684 0
0.173333332 -0.00666666684 0
0.1599999964 -0.00666666684 0
0.1466666608 -0.00666666684 0
0.1333333404 -0.00666666684 0
0.1199999972 -0.00666666684 0
0.1066666692 -0.00666666684 0
0.0933333336 -0.00666666684 0
0.0799999984 -0.00666666684 0
0.06666667 -0.00666666684 0
0.0533333348 -0.00666666684 0
0.03999999912 -0.00666666684 0
0.02666666732 -0.00666666684 0
0.01333333364 -0.00666666684 0
0.0 -0.00666666684 0
0.400000004 -0.01999999956 0
0.3866666556 -0.01999999956 0
0.3733333348 -0.01999999956 0
0.3600000144 -0.01999999956 0
0.346666664 -0.01999999956 0
0.3333333432 -0.01999999956 0
0.3199999928 -0.01999999956 0
0.3066666724 -0.01999999956 0
0.293333322 -0.01999999956 0
0.2800000012 -0.01999999956 0
0.2666666804 -0.01999999956 0
0.25333333 -0.01999999956 0
0.2399999948 -0.01999999956 0
0.226666674 -0.01999999956 0
0.2133333384 -0.01999999956 0
0.2000000028 -0.01999999956 0
0.1866666676 -0.01999999956 0
0.173333332 -0.01999999956 0
0.1599999964 -0.01999999956 0
0.1466666608 -0.01999999956 0
0.1333333404 -0.01999999956 0
0.1199999972 -0.01999999956 0
0.1066666692 -0.01999999956 0
0.0933333336 -0.01999999956 0
0.0799999984 -0.01999999956 0
0.06666667 -0.01999999956 0
0.0533333348 -0.01999999956 0
0.03999999912 -0.01999999956 0
0.02666666732 -0.01999999956 0
0.01333333364 -0.01999999956 0
0.0 -0.01999999956 0
0.400000004 -0.03333333508 0
0.3866666556 -0.03333333508 0
0.3733333348 -0.03333333508 0
0.3600000144 -0.03333333508 0
0.346666664 -0.03333333508 0
0.3333333432 -0.03333333508 0
0.3199999928 -0.03333333508 0
0.3066666724 -0.03333333508 0
0.293333322 -0.03333333508 0
0.2800000012 -0.03333333508 0
0.2666666804 -0.03333333508 0
0.25333333 -0.03333333508 0
0.2399999948 -0.03333333508 0
0.226666674 -0.03333333508 0
0.2133333384 -0.03333333508 0
0.2000000028 -0.03333333508 0
0.1866666676 -0.03333333508 0
0.173333332 -0.03333333508 0
0.1599999964 -0.03333333508 0
0.1466666608 -0.03333333508 0
0.1333333404 -0.03333333508 0
0.1199999972 -0.03333333508 0
0.1066666692 -0.03333333508 0
0.0933333336 -0.03333333508 0
0.0799999984 -0.03333333508 0
0.06666667 -0.03333333508 0
0.0533333348 -0.03333333508 0
0.03999999912 -0.03333333508 0
0.02666666732 -0.03333333508 0
0.01333333364 -0.03333333508 0
0.0 -0.03333333508 0
0.400000004 -0.0466666668 0
0.3866666556 -0.0466666668 0
0.3733333348 -0.0466666668 0
0.3600000144 -0.0466666668 0
0.346666664 -0.0466666668 0
0.3333333432 -0.0466666668 0
0.3199999928 -0.0466666668 0
0.3066666724 -0.0466666668 0
0.293333322 -0.0466666668 0
0.2800000012 -0.0466666668 0
0.2666666804 -0.0466666668 0
0.25333333 -0.0466666668 0
0.2399999948 -0.0466666668 0
0.226666674 -0.0466666668 0
0.2133333384 -0.0466666668 0
0.2000000028 -0.0466666668 0
0.1866666676 -0.0466666668 0
0.173333332 -0.0466666668 0
0.1599999964 -0.0466666668 0
0.1466666608 -0.0466666668 0
0.1333333404 -0.0466666668 0
0.1199999972 -0.0466666668 0
0.1066666692 -0.0466666668 0
0.0933333336 -0.0466666668 0
0.0799999984 -0.0466666668 0
0.06666667 -0.0466666668 0
0.0533333348 -0.0466666668 0
0.03999999912 -0.0466666668 0
0.02666666732 -0.0466666668 0
0.01333333364 -0.0466666668 0
0.0 -0.0466666668 0
0.400000004 -0.0599999988 0
0.3866666556 -0.0599999988 0
0.3733333348 -0.0599999988 0
0.3600000144 -0.0599999988 0
0.346666664 -0.0599999988 0
0.3333333432 -0.0599999988 0
0.3199999928 -0.0599999988 0
0.3066666724 -0.0599999988 0
0.293333322 -0.0599999988 0
0.2800000012 -0.0599999988 0
0.2666666804 -0.0599999988 0
0.25333333 -0.0599999988 0
0.2399999948 -0.0599999988 0
0.226666674 -0.0599999988 0
0.2133333384 -0.0599999988 0
0.2000000028 -0.0599999988 0
0.1866666676 -0.0599999988 0
0.173333332 -0.0599999988 0
0.1599999964 -0.0599999988 0
0.1466666608 -0.0599999988 0
0.1333333404 -0.0599999988 0
0.1199999972 -0.0599999988 0
0.1066666692 -0.0599999988 0
0.0933333336 -0.0599999988 0
0.0799999984 -0.0599999988 0
0.06666667 -0.0599999988 0
0.0533333348 -0.0599999988 0
0.03999999912 -0.0599999988 0
0.02666666732 -0.0599999988 0
0.01333333364 -0.0599999988 0
0.0 -0.0599999988 0
0.400000004 -0.0733333304 0
0.3866666556 -0.0733333304 0
0.3733333348 -0.0733333304 0
0.3600000144 -0.0733333304 0
0.346666664 -0.0733333304 0
0.3333333432 -0.0733333304 0
0.3199999928 -0.0733333304 0
0.3066666724 -0.0733333304 0
0.293333322 -0.0733333304 0
0.2800000012 -0.0733333304 0
0.2666666804 -0.0733333304 0
0.25333333 -0.0733333304 0
0.2399999948 -0.0733333304 0
0.226666674 -0.0733333304 0
0.2133333384 -0.0733333304 0
0.2000000028 -0.0733333304 0
0.1866666676 -0.0733333304 0
0.173333332 -0.0733333304 0
0.1599999964 -0.0733333304 0
0.1466666608 -0.0733333304 0
0.1333333404 -0.0733333304 0
0.1199999972 -0.0733333304 0
0.1066666692 -0.0733333304 0
0.0933333336 -0.0733333304 0
0.0799999984 -0.0733333304 0
0.06666667 -0.0733333304 0
0.0533333348 -0.0733333304 0
0.03999999912 -0.0733333304 0
0.02666666732 -0.0733333304 0
0.01333333364 -0.0733333304 0
0.0 -0.0733333304 0
0.400000004 -0.086666666 0
0.3866666556 -0.086666666 0
0.3733333348 -0.086666666 0
0.3600000144 -0.086666666 0
0.346666664 -0.086666666 0
0.3333333432 -0.086666666 0
0.3199999928 -0.086666666 0
0.3066666724 -0.086666666 0
0.293333322 -0.086666666 0
0.2800000012 -0.086666666 0
0.2666666804 -0.086666666 0
0.25333333 -0.086666666 0
0.2399999948 -0.086666666 0
0.226666674 -0.086666666 0
0.2133333384 -0.086666666 0
0.2000000028 -0.086666666 0
0.1866666676 -0.086666666 0
0.173333332 -0.086666666 0
0.1599999964 -0.086666666 0
0.1466666608 -0.086666666 0
0.1333333404 -0.086666666 0
0.1199999972 -0.086666666 0
0.1066666692 -0.086666666 0
0.0933333336 -0.086666666 0
0.0799999984 -0.086666666 0
0.06666667 -0.086666666 0
0.0533333348 -0.086666666 0
0.03999999912 -0.086666666 0
0.02666666732 -0.086666666 0
0.01333333364 -0.086666666 0
0.0 -0.086666666 0
0.400000004 -0.1000000016 0
0.3866666556 -0.1000000016 0
0.3733333348 -0.1000000016 0
0.3600000144 -0.1000000016 0
0.346666664 -0.1000000016 0
0.3333333432 -0.1000000016 0
0.3199999928 -0.1000000016 0
0.3066666724 -0.1000000016 0
0.293333322 -0.1000000016 0
0.2800000012 -0.1000000016 0
0.2666666804 -0.1000000016 0
0.25333333 -0.1000000016 0
0.2399999948 -0.1000000016 0
0.226666674 -0.1000000016 0
0.2133333384 -0.1000000016 0
0.2000000028 -0.1000000016 0
0.1866666676 -0.1000000016 0
0.173333332 -0.1000000016 0
0.1599999964 -0.1000000016 0
0.1466666608 -0.1000000016 0
0.1333333404 -0.1000000016 0
0.1199999972 -0.1000000016 0
0.1066666692 -0.1000000016 0
0.0933333336 -0.1000000016 0
0.0799999984 -0.1000000016 0
0.06666667 -0.1000000016 0
0.0533333348 -0.1000000016 0
0.03999999912 -0.1000000016 0
0.02666666732 -0.1000000016 0
0.01333333364 -0.1000000016 0
0.0 -0.1000000016 0
0.400000004 -0.1133333372 0
0.3866666556 -0.1133333372 0
0.3733333348 -0.1133333372 0
0.3600000144 -0.1133333372 0
0.346666664 -0.1133333372 0
0.3333333432 -0.1133333372 0
0.3199999928 -0.1133333372 0
0.3066666724 -0.1133333372 0
0.293333322 -0.1133333372 0
0.2800000012 -0.1133333372 0
0.2666666804 -0.1133333372 0
0.25333333 -0.1133333372 0
0.2399999948 -0.1133333372 0
0.226666674 -0.1133333372 0
0.2133333384 -0.1133333372 0
0.2000000028 -0.1133333372 0
0.1866666676 -0.1133333372 0
0.173333332 -0.1133333372 0
0.1599999964 -0.1133333372 0
0.1466666608 -0.1133333372 0
0.1333333404 -0.1133333372 0
0.1199999972 -0.1133333372 0
0.1066666692 -0.1133333372 0
0.0933333336 -0.1133333372 0
0.0799999984 -0.1133333372 0
0.06666667 -0.1133333372 0
0.0533333348 -0.1133333372 0
0.03999999912 -0.1133333372 0
0.02666666732 -0.1133333372 0
0.01333333364 -0.1133333372 0
0.0 -0.1133333372 0
0.400000004 -0.1266666652 0
0.3866666556 -0.1266666652 0
0.3733333348 -0.1266666652 0
[...]
POINT_DATA 961
SCALARS Temp float 1
LOOKUP_TABLE default
0.7933365740016192
0.8251033354227824
0.8480702826334889
0.8649302524279219
0.8774305187488887
0.8867696107067842
0.8938017064162974
0.8991428742068596
0.9032430169581667
0.9064334274617153
0.9089615098972639
0.9110148089704819
0.9127385267993484
0.914249166302515
0.9156446876050326
0.9170125494153181
0.9184370846640736
0.9200062696622323
0.9218188396656835
0.9239924367749273
0.9266735410694111
0.9300505747723984
0.9343705908851034
0.9399630585762557
0.9472717840144217
0.9569002819079779
0.969676489905051
0.9867475767416611
1.009724840512834
1.040944687175954
1.0841348178323564
0.8362016454242983
0.8673407796283615
0.8900631282764475
0.9068309732996956
0.9192882966021115
0.9286091856579216
0.9356352534347405
0.940976562012356
0.9450798594347263
0.9482747817942669
0.950807868496262
0.9528662431590298
0.9545949422678228
0.9561104401647138
0.9575107445085628
0.95888340596818
0.9603128646191857
0.9618872012657708
0.9637052318797501
0.9658846247911845
0.9685717837654204
0.9719548608608286
0.9762803081730298
0.9818763878253038
0.9891846190717498
0.998804216414281
1.0115549183290016
1.0285670535666898
1.051416702540517
1.0823212915400755
1.124479695831143
2.8421862181978206
2.846864112348725
2.859902383250458
2.8720315475803515
2.882169880216269
2.890343893948046
2.8968482042079766
2.9020070023828066
2.9061105086087284
2.9094014826731924
2.9120780191287587
2.91430102790026
2.9162024860684204
2.91789320986034
2.919469783315743
2.921020755876639
2.922632410588746
2.924394417150201
2.9264056745068303
2.928780704240213
2.931656946495429
2.9352031895068107
2.939629239367576
2.945196400169131
2.952226925684373
2.9611070090629816
2.972267750649366
2.986097904624211
3.0026203802015488
3.020343157447956
3.026706075591023
4.821819950256631
4.824387361437048
4.830710017324358
4.838652918835149
4.846255311028772
4.852926496395593
4.85855935004371
4.863232181334942
4.867084511915608
4.870266468167981
4.87291921581536
4.87516883330574
4.877126189916211
4.878889436554714
4.880547522924725
4.882184102906862
4.883881601295449
4.885725358660068
4.887807877340182
4.890233163627199
4.8931210461815
4.89661112337624
4.90086533291702
4.906067158063609
4.912412708748254
4.92008350052582
4.929177386248473
4.939539524094348
4.950357549462413
4.958963965854055
4.962456475189375
6.794770682569033
6.796150527641118
6.799888024998648
6.804974330297877
6.810433525426777
6.8156192549162595
6.820259432959027
6.824283358248211
6.827719696043249
6.830640977630063
6.8331354296952265
6.835293402276211
6.837201656919471
6.8389418490935965
6.8405911819690175
6.842224200527169
6.843915174854805
6.845740717785661
6.847782407973069
6.850129147397745
6.852878820446807
6.85613850072739
6.860021704996562
6.864640119686151
6.8700846937807345
6.876386915030993
6.883443312063655
6.890876811802484
6.8978030520681095
6.902891687127564
6.904770198979664
8.763436993904197
8.764285517709835
8.766638699365757
8.770023310516638
8.773890185999843
8.777798743697826
8.781476833914411
8.784798096741856
8.787729124447527
8.79028937391254
8.792525646354107
8.79449713643233
8.796267381025158
8.797900474020533
8.799459791162494
8.801008175926956
8.80260892668721
8.804327095435914
8.80623072340124
8.80839159304454
8.810884915120527
8.813787076247298
8.817169952597428
8.8210895771577
8.82556547864811
8.83054569898992
8.835852328022549
8.841109796821161
8.845714590005251
8.84891694593279
8.850071750459668
10.729029143484059
10.729575081649484
10.731117486164019
10.733407532199996
10.73613338033477
10.73900888050827
10.741824732981339
10.744456192586865
10.746847035128518
10.748987636339546
10.7508970452289
10.752610476973322
10.754171465309513
10.755627412051576
10.757027377620421
10.758421286516535
10.75985994634633
10.761395381280323
10.763081066445924
10.764971608046771
10.76712128902685
10.769580698999697
10.772390281719225
10.775569388602538
10.77909903784607
10.782897346216913
10.786789774643378
10.79048736340233
10.793597484641197
10.79569352627255
10.796435617569543
12.692105370781237
12.692460803258934
12.693476072246993
12.695014877635217
12.696896768971868
12.698942680400515
12.701007114730384
12.702990927976044
12.704839016768345
12.706530790547003
12.708069629408929
12.709474138842763
12.710771912815792
12.711995544730103
12.713180307675987
12.714362973374355
12.715581315596026
12.716873877257381
12.7182796331664
12.719837147702297
12.721582748434411
12.7235471365312
12.725749685924633
12.728189779769302
12.73083476170114
12.733605470519521
12.736363320440386
12.738907158376229
12.740990805224751
12.742366886542722
12.742848844378043
14.652970908405358
14.653193100888661
14.653832486821186
14.654815130225838
14.65603977276052
14.657400760827883
14.658806475086173
14.66018911109166
14.661506396724924
14.66273814642672
14.663880921099839
14.66494280011138
14.665939221650287
14.666890070645733
14.667817811330407
14.668746385997453
14.669700593767113
14.670705653040933
14.671786678595279
14.672967782231051
14.674270467283877
14.675710958677497
14.67729607369412
14.679017460038033
14.680844392634764
14.682716430710041
14.68453875745448
14.686184507440437
14.687508159727402
14.688370636980178
14.68867054936049
16.6118068366965
16.611925621912622
16.612269471049206
16.612804008134454
16.613481121945966
16.61424897485702
16.61506064775075
16.615879424525062
16.61668053916327
16.617450296992153
16.618183928105893
16.6188831616093
16.61955411557821
16.620205710820954
16.62084857353836
16.62149432010318
16.62215509082872
16.622843176845485
16.623570596636633
16.624348467079727
16.625186000929943
16.626088966398054
16.627057453049666
16.62808296172459
16.62914506587393
16.63020845501513
16.631221759391448
16.632119920786202
16.632831428812256
16.633290096203023
16.63344870682639
18.56873579394707
18.568764664847297
18.568849792901222
18.568986986089197
18.569170046356266
18.569391700089668
18.56964452168737
18.569921652818174
18.570217250418132
18.570526658674616
18.57084639163927
18.57117399083879
18.571507829949255
18.57184691370636
18.572190683891485
18.572538839831804
18.57289117450387
18.57324741215708
18.573607038371474
18.573969111313588
18.574332045229383
18.57469336700698
18.575049448494276
18.575395257716682
18.575724174635468
18.576027971431948
18.576297062938846
18.57652111869933
18.57669005655549
18.576795303154146
18.576831068338084
18.677890792397648
18.677915472060082
18.677988486786127
18.67810691716511
18.678266365425543
18.67846152635724
18.678686785980414
18.678936725699952
18.679206481582348
18.679491930590224
18.67978974520168
18.680097342829097
18.680412775975178
18.680734598755517
18.68106172142103
18.68139326351858
18.68172841209622
18.68206627738026
18.682405743274273
18.682745308277894
18.68308291491369
18.683415774769685
18.683740196283495
18.684051454623617
18.684343734519842
18.684610210460022
18.68484331642707
18.685035237907677
18.685178611537108
18.68526734329029
18.68529739270457
18.78689778666703
18.786919351890614
18.786983314750344
18.787087570440146
18.787228899452053
18.787403328839304
18.787606527977733
18.787834161365478
18.788082164982406
18.788346914113596
18.78862530341291
18.788914745058698
18.78921311312264
18.789518659295908
18.789829907963874
18.790145541252876
18.790464282844564
18.79078477706557
18.79110546488011
18.79142445686298
18.7917394053022
18.79204738498188
18.792344789785112
18.79262727756486
18.792889780688416
18.793126622328984
18.793331761187833
18.793499171473712
18.793623335929638
18.793699788031027
18.793725610410245
18.895762919148538
18.89578213318166
18.895839232429072
18.8959326476249
18.89605994737159
18.896218073277698
18.896403607033598
18.896613018756725
18.89684287604227
18.89708998413484
18.89735146906765
18.897624799269806
18.897907762639665
18.898198416389445
18.89849501391496
18.898795917969466
18.89909950955881
18.899404091304696
18.89970778936952
18.900008456562468
18.900303580692132
18.90059020795435
18.900864886703655
18.90112365726249
18.901362095226204
18.901575433050063
18.901758767247586
18.90190734760823
18.902016927800595
18.902084132776025
18.902106785352203
19.004490802338083
19.004508226071046
19.004560080990693
19.00464515710034
19.00476155892979
19.004906862778135
19.005078300948448
19.005272938512533
19.00548783102726
19.005720137620653
19.005967197756554
19.00622656239262
19.006495989943954
19.00677341903009
19.007056919256364
19.007344627654568
19.007634679906342
19.007925136111854
19.008213906357913
19.008498679878887
19.00877686245162
19.00904553100293
19.009301408590588
19.00954087988003
19.009760047945523
19.009954848048736
19.010121218152815
19.010255319125196
19.01035378792772
19.010413992753143
19.01043425361913
19.113084901887973
19.113100962420365
19.11314881330515
19.11322748872929
19.11333546140153
19.113470750710366
19.11363105301107
19.113813869518154
19.114016626216678
19.114236763973942
19.114471805996136
19.114719391425098
19.11497728173265
19.115243348468113
19.115515541465037
19.11579184362468
19.116070220730357
19.11634856634757
19.116624647403953
19.11689605456811
19.117160161923234
19.117414103753116
19.117654769640946
19.117878833899184
19.11808281602695
19.118263182569883
19.118416486657253
19.11853953763809
19.11862958800399
19.11868451570823
19.11870297816485
19.217133591510756
19.21714851583299
19.217193018020026
19.217266304146136
19.217367108716438
19.217493771057825
19.217644329702953
19.21781661651741
19.21800834888261
19.21821720127895
19.218440863175598
19.2186770715804
19.2189236228133
19.21917836990721
19.219439203341075
19.21970401998123
19.219970687880426
19.22023700690097
19.220500670597893
19.220759233315075
19.22101008649227
19.22125045080416
19.2214773837996
19.22168781609246
19.22187861041225
19.222046650879257
19.222188957403745
19.222302818234127
19.22238593105727
19.222436536920508
19.222453531143014
19.3122573306253
19.312271185476455
19.31231252359638
19.312380678899842
19.31247458265785
19.312592818609584
19.312733692681384
19.312895303211
19.31307561247037
19.313272503462265
19.313483828916215
19.313707441176764
19.313941206384094
19.31418300798311
19.314430736439583
19.31468226904748
19.314935446631832
19.315188046856736
19.315437759126475
19.315682164600428
19.31591872467887
19.316144783464566
19.316357582778107
19.31655430059185
19.31673210598619
19.316888236258173
19.3170200907872
19.317125335663636
19.31720201199639
19.31724863639751
19.317264282833875
19.39856736012641
19.398580188799222
19.398618482258005
19.39868167253422
19.398768843393064
19.398878770881723
19.399009975785965
19.399160776739024
19.399329346303368
19.39951375616546
19.39971201838747
19.39992211211066
19.400141998459837
19.400369627796238
19.40060293577583
19.400839831322532
19.401078182514294
19.4013157997957
19.401550420936957
19.4017797007318
19.402001208146018
19.402212435453478
19.402410817224002
19.402593768394937
19.402758734074343
19.402903255684897
19.40302504826955
19.40312208397244
19.403192676506126
19.4032355580359
19.403249940938995
19.476249483879464
19.476261321012554
19.476296666520845
19.47635503002089
19.476435616946844
19.476537358929544
19.476658953952683
19.476798907058985
19.476955574818845
19.477127201491555
19.477311953751293
19.47750794421842
19.47771324616583
19.477925902946524
19.478143928445924
19.4783653010696
19.478587956528422
19.478809778567147
19.479028591468357
19.47924215679674
19.479448176512243
19.47964430618221
19.479828175734664
19.479997425733124
19.48014975182174
19.480282961318586
19.48039503721001
19.480484205463927
19.480549001875435
19.48058833194144
19.480601518392373
19.545552897375615
19.545563778697822
19.545596278336262
19.545649968885765
19.545724155343418
19.545817898254043
19.545930044950364
19.54605926116394
19.546204066688297
19.5463628645219
19.54653397018624
19.546715632335374
19.54690604678695
19.54710336708657
19.547305707929542
19.54751114348561
19.547717705233815
19.547923378242665
19.54812609917373
19.54832375799391
19.548514205031566
19.548695266445975
19.548864765345172
19.54902055554128
19.549160560860344
19.549282823559857
19.5493855576075
19.54946720350118
19.54952648187497
19.54956244086659
19.549574493346785
19.60677679343966
19.606786761858682
19.606816540593506
19.606865754424664
19.606933791434287
19.607019820919433
19.607122818067054
19.60724158881871
19.607374798799096
19.60752099700225
19.60767864066432
19.60784611328856
19.608021737779783
19.60820378746616
19.608390491457833
19.60858003602484
19.608770566027122
19.60896018518408
19.60914695796639
19.60932891468473
19.6095040610068
19.60967039443971
19.609825924954308
19.609968705930616
19.61009686875477
19.61020866430442
19.610302507571845
19.610377022729338
19.6104310866364
19.610463866842487
19.6104748512034
19.6602557912311
19.660264900256795
19.66029211572337
19.66033710624291
19.660399330101004
19.660478049330518
19.660572349485548
19.660681159452206
19.660803275185938
19.660937379146183
19.66108206153176
19.661235836072002
19.661397152192166
19.661564406057607
19.661735947130737
19.661910081637515
19.662085076477556
19.662259162275355
19.66243053792777
19.662597377881657
19.662757843054056
19.662910097503957
19.66305232807185
19.663182772489648
19.663299749769426
19.663401695849636
19.663487201206305
19.663555048235796
19.663604246962034
19.663634065918984
19.663644056044625
19.706343498347923
19.706351813609587
19.706376660346876
19.706417744188588
19.70647458300171
19.706546518115864
19.706632730400273
19.706732256259777
19.70684400734761
19.70696678668452
19.70709930692872
19.707240204268352
19.70738804963201
19.70754135949045
19.707698603094574
19.707858207319852
19.708018562223863
19.708178025970692
19.708334931116834
19.708487593218507
19.708634322424835
19.708773439823727
19.708903295856487
19.709022295730144
19.70912892612696
19.709221785966857
19.709299618335322
19.709361341784035
19.709406079960804
19.709433187018583
19.709442267152387
19.745397487848418
19.74540508724917
19.745427796956804
19.74546535375583
19.74551732585991
19.745583122007705
19.745662004735102
19.745753103481473
19.74585543117818
19.745967897785764
19.746089326162448
19.746218464367168
19.7463539959817
19.746494550526176
19.7466387110272
19.746785019730087
19.746931984699476
19.74707808595268
19.747221782823516
19.747361523299304
19.747495755807893
19.74762294494908
19.74774158861665
19.74785024095384
19.74794753591137
19.748032213965917
19.74810314946043
19.74815937708878
19.74820011677631
19.74822479485907
19.74823306028035
19.777763043096463
19.777770016069635
19.77779085524383
19.777825323274065
19.777873030310015
19.77793344150195
19.778005888148126
19.77808957861837
19.778183612529066
19.778286992285196
19.77839863702711
19.77851739362839
19.77864204622878
19.778771326207025
19.778903919854475
19.779038474600497
19.779173606232828
19.779307905771145
19.779439947450335
19.779568298390316
19.779691530287472
19.779808234409032
19.77991703747519
19.78001662246445
19.78010574953578
19.780183279452466
19.780248197259404
19.78029963498253
19.780336892815466
19.780359457038855
19.78036701365964
19.80375940447649
19.80376585064927
19.80378511648962
19.803816985573988
19.803861102046614
19.80391697695035
19.803983997784243
19.804061437799536
19.80414846834014
19.8042441688684
19.80434753940841
19.804457510501503
19.80457295207093
19.804692682959043
19.804815478576675
19.804940077406126
19.805065188559155
19.805189499073144
19.805311682213215
19.805430407231942
19.80554435081858
19.80565221135486
19.80575272369376
19.805844678164025
19.80592693935822
19.80599846694152
19.806058336467363
19.806105759156384
19.80614010025655
19.806160894486176
19.806167857741045
19.82366653178412
19.823672559308793
19.823690574659032
19.823720377571664
19.823761638495764
19.823813904079714
19.823876605575222
19.8239490669565
19.824030515912845
19.824120092761568
19.824216861761315
19.824319820271622
19.824427907084694
19.824540011581202
19.824654981295172
19.82477162854892
19.824888738172984
19.825005075022194
19.825119392414464
19.82523044185308
19.82533698419155
19.825437803236703
19.825531719618834
19.825617608372763
19.825694416080516
19.825761179693096
19.82581704519814
19.825861285227344
19.82589331532831
19.825912707588213
19.825919200927306
19.83771400642223
19.837719730138026
19.837736837940007
19.837765141063468
19.83780432869727
19.837853972902778
19.83791353623447
19.837982379063018
19.838059769643813
19.83814489226866
19.838236857791202
19.83833471222577
19.83843744469171
19.838543996274858
19.83865326749844
19.838764125009064
19.838875409360266
19.83898594262968
19.83909453689808
19.839200003889786
19.839301165885736
19.83939686882057
19.83948599547866
19.839567482047435
19.83964033409256
19.83970364398431
19.839756608069884
19.839798542779764
19.839828899462297
19.83984727676051
19.83985342993958
19.846072446142404
19.846077985665524
19.846094543210945
19.84612193689927
19.846159867149645
19.846207921270757
19.84626558062697
19.846332227500024
19.846407154618397
19.846489572864407
19.84657862133479
19.846673375605675
19.846772855442083
19.846876033473972
19.846981842598115
19.847089182677664
19.847196928343593
19.847303936650817
19.847409055559144
19.84751113350319
19.847609030135427
19.84770162910456
19.84778785083758
19.8478666684723
19.84793712313506
19.847998340539128
19.848049547274776
19.84809008603382
19.848119429602534
19.848137192510112
19.84814313979301
19.848846774793355
19.84885225260179
19.848868625776234
19.848895714730435
19.84893322362526
19.84898074485248
19.849037766051758
19.84910367682142
19.849177778070256
19.849259289578697
19.849347359905547
19.84944107454205
19.84953946354274
19.849641510138436
19.84974615811274
19.849852318503487
19.849958877406852
19.85006470364289
19.850168657233336
19.850269598944717
19.850366400971588
19.850457959606125
19.85054320788081
19.85062113129321
19.850690782851764
19.850751299399775
19.85080191761373
19.850841988937
19.85087099329548
19.85088855050651
19.850894428858155
