# vtk DataFile Version 2.0
Unstructured Grid Example
ASCII
DATASET UNSTRUCTURED_GRID

POINTS 961 float
0.400000004 0.01999999956 0
0.3866666556 0.01999999956 0
0.3733333348 0.01999999956 0
0.3600000144 0.01999999956 0
0.346666664 0.01999999956 0
0.3333333432 0.01999999956 0
0.3199999928 0.01999999956 0
0.3066666724 0.01999999956 0
0.293333322 0.01999999956 0
0.2800000012 0.01999999956 0
0.2666666804 0.01999999956 0
0.25333333 0.01999999956 0
0.2399999948 0.01999999956 0
0.226666674 0.01999999956 0
0.2133333384 0.01999999956 0
0.2000000028 0.01999999956 0
0.1866666676 0.01999999956 0
0.173333332 0.01999999956 0
0.1599999964 0.01999999956 0
0.1466666608 0.01999999956 0
0.1333333404 0.01999999956 0
0.1199999972 0.01999999956 0
0.1066666692 0.01999999956 0
0.0933333336 0.01999999956 0
0.0799999984 0.01999999956 0
0.06666667 0.01999999956 0
0.0533333348 0.01999999956 0
0.03999999912 0.01999999956 0
0.02666666732 0.01999999956 0
0.01333333364 0.01999999956 0
0.0 0.01999999956 0
0.400000004 0.00666666684 0
0.3866666556 0.00666666684 0
0.3733333348 0.00666666684 0
0.3600000144 0.00666666684 0
0.346666664 0.00666666684 0
0.3333333432 0.00666666684 0
0.3199999928 0.00666666684 0
0.3066666724 0.00666666684 0
0.293333322 0.00666666684 0
0.2800000012 0.00666666684 0
0.2666666804 0.00666666684 0
0.25333333 0.00666666684 0
0.2399999948 0.00666666684 0
0.226666674 0.00666666684 0
0.2133333384 0.00666666684 0
0.2000000028 0.00666666684 0
0.1866666676 0.00666666684 0
0.173333332 0.00666666684 0
0.1599999964 0.00666666684 0
0.1466666608 0.00666666684 0
0.1333333404 0.00666666684 0
0.1199999972 0.00666666684 0
0.1066666692 0.00666666684 0
0.0933333336 0.00666666684 0
0.0799999984 0.00666666684 0
0.06666667 0.00666666684 0
0.0533333348 0.00666666684 0
0.03999999912 0.00666666684 0
0.02666666732 0.00666666684 0
0.01333333364 0.00666666684 0
0.0 0.00666666684 0
0.400000004 -0.00666666684 0
0.3866666556 -0.00666666684 0
0.3733333348 -0.00666666684 0
0.3600000144 -0.00666666684 0
0.346666664 -0.00666666684 0
0.3333333432 -0.00666666684 0
0.3199999928 -0.00666666684 0
0.3066666724 -0.00666666684 0
0.293333322 -0.00666666684 0
0.2800000012 -0.00666666684 0
0.2666666804 -0.00666666684 0
0.25333333 -0.00666666684 0
0.2399999948 -0.00666666684 0
0.226666674 -0.00666666684 0
0.2133333384 -0.00666666684 0
0.2000000028 -0.00666666684 0
0.1866666676 -0.00666666684 0
0.173333332 -0.00666666684 0
0.1599999964 -0.00666666684 0
0.1466666608 -0.00666666684 0
0.1333333404 -0.00666666684 0
0.1199999972 -0.00666666684 0
0.1066666692 -0.00666666684 0
0.0933333336 -0.00666666684 0
0.0799999984 -0.00666666684 0
0.06666667 -0.00666666684 0
0.0533333348 -0.00666666684 0
0.03999999912 -0.00666666684 0
0.02666666732 -0.00666666684 0
0.01333333364 -0.00666666684 0
0.0 -0.00666666684 0
0.400000004 -0.01999999956 0
0.3866666556 -0.01999999956 0
0.3733333348 -0.01999999956 0
0.3600000144 -0.01999999956 0
0.346666664 -0.01999999956 0
0.3333333432 -0.01999999956 0
0.3199999928 -0.01999999956 0
0.3066666724 -0.01999999956 0
0.293333322 -0.01999999956 0
0.2800000012 -0.01999999956 0
0.2666666804 -0.01999999956 0
0.25333333 -0.01999999956 0
0.2399999948 -0.01999999956 0
0.226666674 -0.01999999956 0
0.2133333384 -0.01999999956 0
0.2000000028 -0.01999999956 0
0.1866666676 -0.01999999956 0
0.173333332 -0.01999999956 0
0.1599999964 -0.01999999956 0
0.1466666608 -0.01999999956 0
0.1333333404 -0.01999999956 0
0.1199999972 -0.01999999956 0
0.1066666692 -0.01999999956 0
0.0933333336 -0.01999999956 0
0.0799999984 -0.01999999956 0
0.06666667 -0.01999999956 0
0.0533333348 -0.01999999956 0
0.03999999912 -0.01999999956 0
0.02666666732 -0.01999999956 0
0.01333333364 -0.01999999956 0
0.0 -0.01999999956 0
0.400000004 -0.03333333508 0
0.3866666556 -0.03333333508 0
0.3733333348 -0.03333333508 0
0.3600000144 -0.03333333508 0
0.346666664 -0.03333333508 0
0.3333333432 -0.03333333508 0
0.3199999928 -0.03333333508 0
0.3066666724 -0.03333333508 0
0.293333322 -0.03333333508 0
0.2800000012 -0.03333333508 0
0.2666666804 -0.03333333508 0
0.25333333 -0.03333333508 0
0.2399999948 -0.03333333508 0
0.226666674 -0.03333333508 0
0.2133333384 -0.03333333508 0
0.2000000028 -0.03333333508 0
0.1866666676 -0.03333333508 0
0.173333332 -0.03333333508 0
0.1599999964 -0.03333333508 0
0.1466666608 -0.03333333508 0
0.1333333404 -0.03333333508 0
0.1199999972 -0.03333333508 0
0.1066666692 -0.03333333508 0
0.0933333336 -0.03333333508 0
0.0799999984 -0.03333333508 0
0.06666667 -0.03333333508 0
0.0533333348 -0.03333333508 0
0.03999999912 -0.03333333508 0
0.02666666732 -0.03333333508 0
0.01333333364 -0.03333333508 0
0.0 -0.03333333508 0
0.400000004 -0.0466666668 0
0.3866666556 -0.0466666668 0
0.3733333348 -0.0466666668 0
0.3600000144 -0.0466666668 0
0.346666664 -0.0466666668 0
0.3333333432 -0.0466666668 0
0.3199999928 -0.0466666668 0
0.3066666724 -0.0466666668 0
0.293333322 -0.0466666668 0
0.2800000012 -0.0466666668 0
0.2666666804 -0.0466666668 0
0.25333333 -0.0466666668 0
0.2399999948 -0.0466666668 0
0.226666674 -0.0466666668 0
0.2133333384 -0.0466666668 0
0.2000000028 -0.0466666668 0
0.1866666676 -0.0466666668 0
0.173333332 -0.0466666668 0
0.1599999964 -0.0466666668 0
0.1466666608 -0.0466666668 0
0.1333333404 -0.0466666668 0
0.1199999972 -0.0466666668 0
0.1066666692 -0.0466666668 0
0.0933333336 -0.0466666668 0
0.0799999984 -0.0466666668 0
0.06666667 -0.0466666668 0
0.0533333348 -0.0466666668 0
0.03999999912 -0.0466666668 0
0.02666666732 -0.0466666668 0
0.01333333364 -0.0466666668 0
0.0 -0.0466666668 0
0.400000004 -0.0599999988 0
0.3866666556 -0.0599999988 0
0.3733333348 -0.0599999988 0
0.3600000144 -0.0599999988 0
0.346666664 -0.0599999988 0
0.3333333432 -0.0599999988 0
0.3199999928 -0.0599999988 0
0.3066666724 -0.0599999988 0
0.293333322 -0.0599999988 0
0.2800000012 -0.0599999988 0
0.2666666804 -0.0599999988 0
0.25333333 -0.0599999988 0
0.2399999948 -0.0599999988 0
0.226666674 -0.0599999988 0
0.2133333384 -0.0599999988 0
0.2000000028 -0.0599999988 0
0.1866666676 -0.0599999988 0
0.173333332 -0.0599999988 0
0.1599999964 -0.0599999988 0
0.1466666608 -0.0599999988 0
0.1333333404 -0.0599999988 0
0.1199999972 -0.0599999988 0
0.1066666692 -0.0599999988 0
0.0933333336 -0.0599999988 0
0.0799999984 -0.0599999988 0
0.06666667 -0.0599999988 0
0.0533333348 -0.0599999988 0
0.03999999912 -0.0599999988 0
0.02666666732 -0.0599999988 0
0.01333333364 -0.0599999988 0
0.0 -0.0599999988 0
0.400000004 -0.0733333304 0
0.3866666556 -0.0733333304 0
0.3733333348 -0.0733333304 0
0.3600000144 -0.0733333304 0
0.346666664 -0.0733333304 0
0.3333333432 -0.0733333304 0
0.3199999928 -0.0733333304 0
0.3066666724 -0.0733333304 0
0.293333322 -0.0733333304 0
0.2800000012 -0.0733333304 0
0.2666666804 -0.0733333304 0
0.25333333 -0.0733333304 0
0.2399999948 -0.0733333304 0
0.226666674 -0.0733333304 0
0.2133333384 -0.0733333304 0
0.2000000028 -0.0733333304 0
0.1866666676 -0.0733333304 0
0.173333332 -0.0733333304 0
0.1599999964 -0.0733333304 0
0.1466666608 -0.0733333304 0
0.1333333404 -0.0733333304 0
0.1199999972 -0.0733333304 0
0.1066666692 -0.0733333304 0
0.0933333336 -0.0733333304 0
0.0799999984 -0.0733333304 0
0.06666667 -0.0733333304 0
0.0533333348 -0.0733333304 0
0.03999999912 -0.0733333304 0
0.02666666732 -0.0733333304 0
0.01333333364 -0.0733333304 0
0.0 -0.0733333304 0
0.400000004 -0.086666666 0
0.3866666556 -0.086666666 0
0.3733333348 -0.086666666 0
0.3600000144 -0.086666666 0
0.346666664 -0.086666666 0
0.3333333432 -0.086666666 0
0.3199999928 -0.086666666 0
0.3066666724 -0.086666666 0
0.293333322 -0.086666666 0
0.2800000012 -0.086666666 0
0.2666666804 -0.086666666 0
0.25333333 -0.086666666 0
0.2399999948 -0.086666666 0
0.226666674 -0.086666666 0
0.2133333384 -0.086666666 0
0.2000000028 -0.086666666 0
0.1866666676 -0.086666666 0
0.173333332 -0.086666666 0
0.1599999964 -0.086666666 0
0.1466666608 -0.086666666 0
0.1333333404 -0.086666666 0
0.1199999972 -0.086666666 0
0.1066666692 -0.086666666 0
0.0933333336 -0.086666666 0
0.0799999984 -0.086666666 0
0.06666667 -0.086666666 0
0.0533333348 -0.086666666 0
0.03999999912 -0.086666666 0
0.02666666732 -0.086666666 0
0.01333333364 -0.086666666 0
0.0 -0.086666666 0
0.400000004 -0.1000000016 0
0.3866666556 -0.1000000016 0
0.3733333348 -0.1000000016 0
0.3600000144 -0.1000000016 0
0.346666664 -0.1000000016 0
0.3333333432 -0.1000000016 0
0.3199999928 -0.1000000016 0
0.3066666724 -0.1000000016 0
0.293333322 -0.1000000016 0
0.2800000012 -0.1000000016 0
0.2666666804 -0.1000000016 0
0.25333333 -0.1000000016 0
0.2399999948 -0.1000000016 0
0.226666674 -0.1000000016 0
0.2133333384 -0.1000000016 0
0.2000000028 -0.1000000016 0
0.1866666676 -0.1000000016 0
0.173333332 -0.1000000016 0
0.1599999964 -0.1000000016 0
0.1466666608 -0.1000000016 0
0.1333333404 -0.1000000016 0
0.1199999972 -0.1000000016 0
0.1066666692 -0.1000000016 0
0.0933333336 -0.1000000016 0
0.0799999984 -0.1000000016 0
0.06666667 -0.1000000016 0
0.0533333348 -0.1000000016 0
0.03999999912 -0.1000000016 0
0.02666666732 -0.1000000016 0
0.01333333364 -0.1000000016 0
0.0 -0.1000000016 0
0.400000004 -0.1133333372 0
0.3866666556 -0.1133333372 0
0.3733333348 -0.1133333372 0
0.3600000144 -0.1133333372 0
0.346666664 -0.1133333372 0
0.3333333432 -0.1133333372 0
0.3199999928 -0.1133333372 0
0.3066666724 -0.1133333372 0
0.293333322 -0.1133333372 0
0.2800000012 -0.1133333372 0
0.2666666804 -0.1133333372 0
0.25333333 -0.1133333372 0
0.2399999948 -0.1133333372 0
0.226666674 -0.1133333372 0
0.2133333384 -0.1133333372 0
0.2000000028 -0.1133333372 0
0.1866666676 -0.1133333372 0
0.173333332 -0.1133333372 0
0.1599999964 -0.1133333372 0
0.1466666608 -0.1133333372 0
0.1333333404 -0.1133333372 0
0.1199999972 -0.1133333372 0
0.1066666692 -0.1133333372 0
0.0933333336 -0.1133333372 0
0.0799999984 -0.1133333372 0
0.06666667 -0.1133333372 0
0.0533333348 -0.1133333372 0
0.03999999912 -0.1133333372 0
0.02666666732 -0.1133333372 0
0.01333333364 -0.1133333372 0
0.0 -0.1133333372 0
0.400000004 -0.1266666652 0
0.3866666556 -0.1266666652 0
0.3733333348 -0.1266666652 0
[...]
POINT_DATA 961
SCALARS Temp float 1
LOOKUP_TABLE default
0.7122500661035449
0.740697551478747
0.7611124838316919
0.7759561469310243
0.7868322274086126
0.7948404088815839
0.8007635974403495
0.8051652987242368
0.8084556548522542
0.8109351816774599
0.8128266857771511
0.8142973957787978
0.8154751094443758
0.8164607603740274
0.8173377945136947
0.8181796083792775
0.8190563603685013
0.8200412321188908
0.8212170064114255
0.8226835924185748
0.8245671903441505
0.8270323571282385
0.8302973866242038
0.8346561622131041
0.8405074943805106
0.8483967559682507
0.8590752002434034
0.8735867420009304
0.8934001425213627
0.920647000049685
0.9587085661763386
0.7517664744949573
0.7796612418572435
0.7998569023181957
0.8146193126966147
0.8254580449888808
0.8334508937261281
0.8393694615761801
0.8437718744959807
0.8470654635361506
0.8495492818748244
0.8514453851268301
0.8529206486626616
0.8541027452701396
0.8550926058855539
0.8559737417669868
0.8568196547549266
0.8577006231642548
0.8586899479164248
0.8598705124537158
0.8613422815777257
0.8632314242453945
0.8657022991929826
0.868972714030334
0.8733355338602024
0.8791875975342431
0.8870705219144646
0.897728342999163
0.9121900569561394
0.9318933639604479
0.9588624229663042
0.996029068156016
2.6018879323879496
2.6060321259993153
2.617582106746271
2.628234633658787
2.637043379597311
2.6440518282012397
2.649539204710806
2.653806944538928
2.657122423548495
2.659707554871818
2.661741875670723
2.663369739036376
2.664708108415047
2.6658538476463534
2.666890208683969
2.667892632585649
2.6689341445824577
2.6700906452081297
2.671446383386835
2.673099951593451
2.675171137854244
2.6778088614656856
2.6812003293220803
2.685581052963916
2.6912441623502485
2.698544241027996
2.7078819514234858
2.7196285498620156
2.733841236182078
2.74924762060839
2.7547786776960264
4.428952235950748
4.4312137705870995
4.436764429808029
4.443700147577591
4.450276188119189
4.4559773828386104
4.460720022596081
4.4645839035698485
4.467700997187942
4.470210388829854
4.472241097741906
4.473906943586651
4.475306764154803
4.476526935519268
4.477644786873394
4.478732345334707
4.4798602132124685
4.4811015206695375
4.4825359855148195
4.484254090924616
4.486361292114157
4.488981958877592
4.49226219073163
4.4963697472834445
4.501486904219621
4.50778720007579
4.515375168054259
4.524137395305401
4.533384162045328
4.540786509800338
4.5438024695095995
6.250620425517193
6.251823955172642
6.255076583072068
6.259480509294935
6.26417028185591
6.268576744605433
6.2724656392533955
6.275781652728336
6.278556665569887
6.280860035653365
6.282773519560578
6.284379343104143
6.285755330765565
6.286973785259001
6.288102307399727
6.2892056327666435
6.290347992650878
6.291595695309584
6.293019731116415
6.294698171612206
6.296717990102757
6.299175642462936
6.302175094256775
6.305820997860966
6.310202495104651
6.315359449743521
6.321215976007516
6.3274576548865396
6.333323607287513
6.337657859926634
6.339261908036901
8.069032595405865
8.06976559428426
8.071793776022673
8.07469754084977
8.077991255030755
8.081287524824404
8.084349790541168
8.087071312864587
8.089427424392746
8.091439492432958
8.093152091260908
8.094619738770696
8.095899857312542
8.097049569897322
8.0981247547372
8.099180413952796
8.100271763197306
8.101455613819596
8.102791717879038
8.104343708941874
8.106179129227549
8.108367768024369
8.110976992386732
8.114062082910891
8.117648293075646
8.12170012979957
8.126073158008797
8.130450086543794
8.134312746147863
8.13701222192776
8.137988076171585
9.885252902108189
9.885719697417802
9.887035697465603
9.88898106270582
9.891280979176884
9.893684445056106
9.896009426805795
9.898149224313894
9.900057759022914
9.901729776792575
9.903184758930529
9.90445578108948
9.905582597583296
9.906607793039171
9.907574959532893
9.908528152655977
9.909512083458061
9.910572606378318
9.911757136162514
9.913114592409833
9.914694359112364
9.916543562154354
9.91870162911317
9.921190849158242
9.924001311155472
9.92706922866709
9.930250444952186
9.933300642663992
9.935883843095532
9.937632587328519
9.938253083614756
11.699750469050024
11.700051078180014
11.700907939240437
11.702201073411238
11.703772010742702
11.705464151651801
11.707151150918644
11.708747995994369
11.710208667301286
11.711517458422358
11.712679479854458
11.713712848065153
11.714643168533161
11.715500058038561
11.716315182316606
11.71712132709894
11.717952090602273
11.71884182530694
11.71982550073741
11.720938131933568
11.722213348085855
11.723680581332319
11.725360207879419
11.72725603421496
11.729344729283424
11.731562999984153
11.733795950743463
11.735873842950266
11.737586871923018
11.738722981316595
11.739121722716478
13.512758307738975
13.512943781080926
13.513476327733851
13.514291102069262
13.515299498569204
13.516409432343277
13.517541572006513
13.518637860399117
13.51966286955244
13.520600605216186
13.52144967300745
13.522218597996567
13.52292213671305
13.523578727448688
13.524208893507907
13.524834344575655
13.525477515154089
13.52616127766748
13.52690858924014
13.527741812997235
13.528681419718442
13.52974374576855
13.530937452525105
13.532258509872028
13.533683855877543
13.535164844843314
13.536622945157355
13.537951466776185
13.539026924366706
13.539730654791363
13.53997587737447
15.324389968129786
15.324486881207477
15.324766687331152
15.325199369988123
15.325743024829366
15.326352697923529
15.326987989393075
15.327617661632685
15.32822110353125
15.328787479832211
15.329313773610039
15.329802607883455
15.330260370273637
15.33069581894619
15.331119137538865
15.331541340066872
15.331973902980016
15.33242848657458
15.332916616490985
15.333449186583996
15.334035632537816
15.334682626006947
15.335392148656831
15.336158947040673
15.336967579549654
15.337789752162344
15.338583165896583
15.339293427661948
15.339860196315634
15.340227304996114
15.340354553347282
17.134699888174048
17.134720252269098
17.134780092431534
17.13487588259106
17.135002439073258
17.13515373690387
17.135323715850436
17.135506904521055
17.13569880141329
17.135896014089877
17.13609623032919
17.136298082734758
17.13650096963193
17.136704872449418
17.13691018270709
17.13711754428526
17.13732770988174
17.137541399993488
17.1377591550969
17.137981170371308
17.13820710434271
17.138435860503584
17.138665345148745
17.138892235134016
17.13911179809857
17.139317850185822
17.139502945333028
17.13965887795254
17.139777518536327
17.139851885581294
17.139877235694733
17.235704321344148
17.235721117011355
17.23577065570755
17.235850526800647
17.23595712215244
17.236086135107655
17.236233080751543
17.23639373210289
17.23656442548935
17.236742214920966
17.236924908950158
17.23711101759436
17.237299649041425
17.237490386266085
17.237683155723175
17.237878096781174
17.238075435649225
17.238275357938956
17.2384778762983
17.238682688567394
17.23888902416104
17.239095483471104
17.239299877670987
17.239499099789263
17.239689056966395
17.23986471819789
17.240020324924863
17.240149794605433
17.24024730593003
17.24030799044988
17.24032859943388
17.336604278387917
17.336618403124486
17.336660184571173
17.336727925950562
17.33681905049662
17.33693041562407
17.337058654803087
17.33720048135371
17.33735292218894
17.33751345750584
17.337680081444176
17.33785129287813
17.338026040263454
17.338203641440376
17.338383687382183
17.338565938628737
17.338750220364346
17.33893631393316
17.3391238450766
17.339312168372498
17.339500249269047
17.339686550835665
17.339868932814255
17.340044588101414
17.34021003498951
17.340361198370868
17.34049360144657
17.340602675192006
17.340684167202234
17.34073459616272
17.340751672272418
17.437404821495758
17.437416897413748
17.43745269930398
17.43751100077159
17.43758991683941
17.437687106941034
17.437800003590322
17.43792602460253
17.438062748240814
17.438208029348637
17.438360063470398
17.438517398847928
17.43867891033332
17.43884374918602
17.43901127445527
17.439180973537045
17.439352378458743
17.439524977694923
17.439698126020506
17.439870954181668
17.440042281550134
17.440210539219166
17.440373709692008
17.440529302527732
17.440674375685315
17.440805622493734
17.44091953233452
17.441012623035334
17.44108172772784
17.441124298953724
17.44113868089537
17.538109752753886
17.538120223866414
17.53815132326888
17.538202142266666
17.538271269809
17.53835692665985
17.538457120952998
17.53856979735948
17.538692967150187
17.538824800720338
17.538963686369474
17.539108250956513
17.539257350605773
17.53941004069753
17.539565528196214
17.539723112443525
17.539882120706977
17.540041839196434
17.54020144308818
17.54035992839658
17.54051604941304
17.54066826852676
17.540814722756085
17.540953221594698
17.541081280207855
17.541196199958936
17.541295197732776
17.541375578969824
17.541434940481878
17.54147137751997
17.541483664282413
17.63872194996954
17.638731141777214
17.63875848003081
17.638803275188504
17.638864446918905
17.63894061458087
17.63903020474524
17.63913155686097
17.639243019639533
17.63936302312235
17.63949012913638
17.639623054099523
17.63976066899681
17.639901982695665
17.64004610976391
17.640192227553275
17.64033952819659
17.64048716647782
17.64063420737773
17.640779576405677
17.64092201630964
17.64106005596706
17.641191994128278
17.64131590902234
17.641429694341674
17.64153112897699
17.641617978966615
17.64168812612058
17.64173971277673
17.641771285146486
17.64178191558078
17.736019462215502
17.73602761657032
17.736051896186417
17.736091765622113
17.73614637934182
17.736214643828827
17.736295293032228
17.736386963859523
17.736488267758308
17.736597846201303
17.73671441256092
17.736836773971223
17.73696383613335
17.737094595308424
17.737228117412233
17.737363507845156
17.737499876950615
17.737636301953692
17.737771789004814
17.7379052382657
17.738035415178665
17.738160932666993
17.738280245623542
17.738391666103503
17.738493397706044
17.738583593902472
17.738660437612573
17.738722237044477
17.738767530080704
17.73879518506754
17.738804485235228
17.826756931769133
17.8267642315662
17.826785985800253
17.82682176931529
17.826870905993033
17.826932512079168
17.827005549886074
17.827088882213587
17.827181325781368
17.827281693745057
17.827388829871897
17.827501628206043
17.827619040169587
17.82774007215332
17.82786377273439
17.827989212273067
17.82811545904823
17.82824155251947
17.828366476947643
17.828489137928738
17.82860834442346
17.828722800079
17.8288311042361
17.828931769202647
17.82902325119563
17.829103998248478
17.82917251211726
17.829227420046333
17.829267550854322
17.82929200684726
17.82930022313226
17.910902540254387
17.910909128674202
17.910928776501475
17.910961138712747
17.91100566316041
17.91106162124747
17.911128146697084
17.911204275162856
17.9112889844196
17.911381226954028
17.911479957689053
17.911584151142122
17.91169280942993
17.911804963439863
17.911919665851457
17.912035978092216
17.91215295473588
17.91226962562365
17.912384978475277
17.91249794409681
17.912607386218134
17.912712098959652
17.91281081165203
17.912902206299005
17.912984944578895
17.913057706873307
17.91311924049032
17.913168413780568
17.91320427222476
17.91322609047727
17.913233414724736
17.988426731397645
17.98843272297906
17.98845060065101
17.98848007841659
17.988520696017247
17.98857184096543
17.9886327769415
17.988702672930614
17.98878063375935
17.988865725191904
17.98895699645407
17.98905349501701
17.989154274776347
17.989258399492034
17.98936493992648
17.989472966268572
17.98958153879879
17.989689696785682
17.989796447923347
17.989900759982444
17.99000155622151
17.99009771691916
17.99018808630558
17.99027148927114
17.990346754575135
17.990412746596775
17.990468403082552
17.99051277631429
17.990545074952266
17.990564702234444
17.99057128670455
18.059302165585358
18.059307653907222
18.059324036941714
18.059351072708775
18.059388369856528
18.059435403718968
18.059491537437157
18.059556043649437
18.059628127985786
18.059706948553956
18.059791634370956
18.059881298080633
18.059975043952914
18.060071972740452
18.060171181715173
18.06027176110545
18.060372789433043
18.060473327493202
18.060572412877438
18.06066905632775
18.06076224106545
18.06085092695495
18.060934058499136
18.06101058038971
18.061079457347937
18.06113970004723
18.061190394893416
18.06123073567531
18.061260055186885
18.061277853672962
18.061283821470347
18.123503702351563
18.123508765453465
18.123523884211984
18.12354884982325
18.123583323134678
18.123626846530538
18.123678859908072
18.12373871704799
18.123805703966774
18.123879054228368
18.12395796420397
18.12404160407543
18.12412912550503
18.124219667357806
18.124312357761703
18.12440631345528
18.124500638554277
18.124594422282645
18.124686737219633
18.124776639032262
18.124863168512835
18.124945357398996
18.12502223680251
18.12509285149423
18.12515627688572
18.125211640353427
18.12525814498322
18.12529509420895
18.125321916052094
18.12533818463041
18.125343637110387
18.18100878500631
18.181013489274484
18.18102754016674
18.18105075410045
18.1810828317892
18.181123367191997
18.181171859826954
18.18122772732798
18.181290320039444
18.181358933234506
18.181432819943716
18.181511200576875
18.18159327022256
18.181678204880548
18.181765164920446
18.181853296515982
18.181941732892454
18.18202959478309
18.18211599136109
18.182200022359922
18.18228078195113
18.182357365565913
18.182428878392486
18.18249444844327
18.182553241177803
18.182604477236126
18.182647451622913
18.182681553169175
18.182706283410862
18.182721273124507
18.182726295240567
18.231796731099088
18.231801134104167
18.23181428779582
18.23183602787485
18.231866085662624
18.231904094972375
18.231949601804004
18.23200207416081
18.232060913897694
18.23212546665678
18.232195032847542
18.23226887617773
18.232346230595926
18.23242630680726
18.23250829668629
18.23259137618881
18.2326747083683
18.232757445783
18.232838733333555
18.2329177120439
18.232993524163874
18.233065320561415
18.233132269090557
18.233193566563475
18.233248451466377
18.23329621891249
18.233336236389892
18.233367959397455
18.233390946415874
18.23340487185857
18.23340953609638
18.27584970230853
18.275853854906252
18.27586626241178
18.275886775291582
18.27591514839188
18.275951046335276
18.27599405133975
18.276043671067097
18.276099348467657
18.276160470039418
18.276226375414268
18.27629636504126
18.27636970681085
18.276445642711774
18.276523393885036
18.276602164568096
18.27668114635351
18.27675952197107
18.276836469456583
18.276911167067084
18.276982799179443
18.2770505639769
18.277113681594404
18.27717140514861
18.27722303193848
18.277267916263988
18.277305482595576
18.277335238386705
18.277356786193902
18.27736983403687
18.27737420334951
18.31315181759039
18.313155765515564
18.313167562834657
18.31318707126589
18.313214063640558
18.313248228255418
18.313289175351354
18.31333644355401
18.313389508264596
18.31344778869801
18.313510656428875
18.31357744242698
18.313647443412034
18.31371992856597
18.313794145009613
18.313869322456753
18.313944678330518
18.314019422498518
18.314092762354978
18.314163908495672
18.314232081119012
18.31429651783728
18.314356481571107
18.314411270798164
18.314460229571488
18.314502758719275
18.3145383270952
18.31456648231889
18.314586860823354
18.314599196346876
18.31460332639695
18.343689893283337
18.343693678379243
18.343704990082745
18.343723698558616
18.343749590177275
18.343782371134182
18.343821672980972
18.343867058070153
18.343918026904884
18.343974024300177
18.34403444716633
18.34409865106008
18.344165956321284
18.344235654792726
18.344307015568766
18.344379290128025
18.3444517180295
18.3445235322945
18.344593965102074
18.344662253960852
18.344727648416185
18.344789417889707
18.344846859334403
18.344899306859574
18.34494614084911
18.34498679795629
18.345020780948214
18.345047667945583
18.345067120981266
18.345078893158544
18.345082834058946
18.36745308607194
18.36745674726848
18.367467689358733
18.36748578864536
18.367510841359667
18.36754256677902
18.36758061210447
18.3676245572191
18.367673921312466
18.367728168430098
18.367786714715244
18.36784893461069
18.36791416682833
18.36798172105401
18.368050883865404
18.368120924177777
18.36819109932014
18.368260660842914
18.368328860612547
18.368394957297962
18.368458223256248
18.368517952353187
18.368573467414834
18.36862412937877
18.368669345753386
18.36870857974597
18.368741359108412
18.3687672843211
18.368786036110425
18.368797381679467
18.368801179384235
18.38443281455756
18.384436388672754
18.384447070933746
18.384464741811946
18.384489204247622
18.38452018644231
18.38455734631076
18.384600275793108
18.384648507002993
18.384701517375767
18.38475873654929
18.384819552330356
18.384883316546677
18.384949351730697
18.385016957137243
18.385085414382967
18.3851539937582
18.385221960299198
18.385288580128762
18.38535312713113
18.38541488993552
18.385473179703176
18.38552733742558
18.385576742744167
18.385620821960593
18.385659056581485
18.38569099149885
18.385716242475528
18.385734502977098
18.385745549794493
18.385749247241655
18.394623097521183
18.394626619940162
18.394637147933125
18.394654564390837
18.39467867615174
18.394709216611812
18.394745849936974
18.39478817512375
18.394835731878047
18.3948880055356
18.394944433736597
18.395004412256267
18.395067300786952
18.39513242960554
18.395199105642927
18.39526661822828
18.395334245528336
18.395401260763485
18.395466938680805
18.395530562328304
18.395591430085798
18.395648863424448
18.395702214110234
18.395750872827602
18.395794276928655
18.39583191864193
18.395863352872027
18.395888204287083
18.395906173761546
18.395917043654272
18.395920681735866
18.398020252288887
18.39802375756655
18.398034234404555
18.398051566486902
18.3980755619308
18.398105955837842
18.398142414428953
18.39818453902399
18.398231871833172
18.39828390080397
18.3983400662286
18.39839976653003
18.398462364021178
18.39852719156607
18.398593558665365
18.39866075723362
18.398728068078874
18.398794767164258
18.398860132122632
18.398923449061787
18.39898401960923
18.399041168661366
18.39909425155506
18.399142662626236
18.399185842873564
18.399223288057545
18.39925455637607
18.399279275422803
18.399297148503692
18.39930795980361
18.399311578226243
