# vtk DataFile Version 2.0
Unstructured Grid Example
ASCII
DATASET UNSTRUCTURED_GRID

POINTS 961 float
0.400000004 0.01999999956 0
0.3866666556 0.01999999956 0
0.3733333348 0.01999999956 0
0.3600000144 0.01999999956 0
0.346666664 0.01999999956 0
0.3333333432 0.01999999956 0
0.3199999928 0.01999999956 0
0.3066666724 0.01999999956 0
0.293333322 0.01999999956 0
0.2800000012 0.01999999956 0
0.2666666804 0.01999999956 0
0.25333333 0.01999999956 0
0.2399999948 0.01999999956 0
0.226666674 0.01999999956 0
0.2133333384 0.01999999956 0
0.2000000028 0.01999999956 0
0.1866666676 0.01999999956 0
0.173333332 0.01999999956 0
0.1599999964 0.01999999956 0
0.1466666608 0.01999999956 0
0.1333333404 0.01999999956 0
0.1199999972 0.01999999956 0
0.1066666692 0.01999999956 0
0.0933333336 0.01999999956 0
0.0799999984 0.01999999956 0
0.06666667 0.01999999956 0
0.0533333348 0.01999999956 0
0.03999999912 0.01999999956 0
0.02666666732 0.01999999956 0
0.01333333364 0.01999999956 0
0.0 0.01999999956 0
0.400000004 0.00666666684 0
0.3866666556 0.00666666684 0
0.3733333348 0.00666666684 0
0.3600000144 0.00666666684 0
0.346666664 0.00666666684 0
0.3333333432 0.00666666684 0
0.3199999928 0.00666666684 0
0.3066666724 0.00666666684 0
0.293333322 0.00666666684 0
0.2800000012 0.00666666684 0
0.2666666804 0.00666666684 0
0.25333333 0.00666666684 0
0.2399999948 0.00666666684 0
0.226666674 0.00666666684 0
0.2133333384 0.00666666684 0
0.2000000028 0.00666666684 0
0.1866666676 0.00666666684 0
0.173333332 0.00666666684 0
0.1599999964 0.00666666684 0
0.1466666608 0.00666666684 0
0.1333333404 0.00666666684 0
0.1199999972 0.00666666684 0
0.1066666692 0.00666666684 0
0.0933333336 0.00666666684 0
0.0799999984 0.00666666684 0
0.06666667 0.00666666684 0
0.0533333348 0.00666666684 0
0.03999999912 0.00666666684 0
0.02666666732 0.00666666684 0
0.01333333364 0.00666666684 0
0.0 0.00666666684 0
0.400000004 -0.00666666684 0
0.3866666556 -0.00666666684 0
0.3733333348 -0.00666666684 0
0.3600000144 -0.00666666684 0
0.346666664 -0.00666666684 0
0.3333333432 -0.00666666684 0
0.3199999928 -0.00666666684 0
0.3066666724 -0.00666666684 0
0.293333322 -0.00666666684 0
0.2800000012 -0.00666666684 0
0.2666666804 -0.00666666684 0
0.25333333 -0.00666666684 0
0.2399999948 -0.00666666684 0
0.226666674 -0.00666666684 0
0.2133333384 -0.00666666684 0
0.2000000028 -0.00666666684 0
0.1866666676 -0.00666666684 0
0.173333332 -0.00666666684 0
0.1599999964 -0.00666666684 0
0.1466666608 -0.00666666684 0
0.1333333404 -0.00666666684 0
0.1199999972 -0.00666666684 0
0.1066666692 -0.00666666684 0
0.0933333336 -0.00666666684 0
0.0799999984 -0.00666666684 0
0.06666667 -0.00666666684 0
0.0533333348 -0.00666666684 0
0.03999999912 -0.00666666684 0
0.02666666732 -0.00666666684 0
0.01333333364 -0.00666666684 0
0.0 -0.00666666684 0
0.400000004 -0.01999999956 0
0.3866666556 -0.01999999956 0
0.3733333348 -0.01999999956 0
0.3600000144 -0.01999999956 0
0.346666664 -0.01999999956 0
0.3333333432 -0.01999999956 0
0.3199999928 -0.01999999956 0
0.3066666724 -0.01999999956 0
0.293333322 -0.01999999956 0
0.2800000012 -0.01999999956 0
0.2666666804 -0.01999999956 0
0.25333333 -0.01999999956 0
0.2399999948 -0.01999999956 0
0.226666674 -0.01999999956 0
0.2133333384 -0.01999999956 0
0.2000000028 -0.01999999956 0
0.1866666676 -0.01999999956 0
0.173333332 -0.01999999956 0
0.1599999964 -0.01999999956 0
0.1466666608 -0.01999999956 0
0.1333333404 -0.01999999956 0
0.1199999972 -0.01999999956 0
0.1066666692 -0.01999999956 0
0.0933333336 -0.01999999956 0
0.0799999984 -0.01999999956 0
0.06666667 -0.01999999956 0
0.0533333348 -0.01999999956 0
0.03999999912 -0.01999999956 0
0.02666666732 -0.01999999956 0
0.01333333364 -0.01999999956 0
0.0 -0.01999999956 0
0.400000004 -0.03333333508 0
0.3866666556 -0.03333333508 0
0.3733333348 -0.03333333508 0
0.3600000144 -0.03333333508 0
0.346666664 -0.03333333508 0
0.3333333432 -0.03333333508 0
0.3199999928 -0.03333333508 0
0.3066666724 -0.03333333508 0
0.293333322 -0.03333333508 0
0.2800000012 -0.03333333508 0
0.2666666804 -0.03333333508 0
0.25333333 -0.03333333508 0
0.2399999948 -0.03333333508 0
0.226666674 -0.03333333508 0
0.2133333384 -0.03333333508 0
0.2000000028 -0.03333333508 0
0.1866666676 -0.03333333508 0
0.173333332 -0.03333333508 0
0.1599999964 -0.03333333508 0
0.1466666608 -0.03333333508 0
0.1333333404 -0.03333333508 0
0.1199999972 -0.03333333508 0
0.1066666692 -0.03333333508 0
0.0933333336 -0.03333333508 0
0.0799999984 -0.03333333508 0
0.06666667 -0.03333333508 0
0.0533333348 -0.03333333508 0
0.03999999912 -0.03333333508 0
0.02666666732 -0.03333333508 0
0.01333333364 -0.03333333508 0
0.0 -0.03333333508 0
0.400000004 -0.0466666668 0
0.3866666556 -0.0466666668 0
0.3733333348 -0.0466666668 0
0.3600000144 -0.0466666668 0
0.346666664 -0.0466666668 0
0.3333333432 -0.0466666668 0
0.3199999928 -0.0466666668 0
0.3066666724 -0.0466666668 0
0.293333322 -0.0466666668 0
0.2800000012 -0.0466666668 0
0.2666666804 -0.0466666668 0
0.25333333 -0.0466666668 0
0.2399999948 -0.0466666668 0
0.226666674 -0.0466666668 0
0.2133333384 -0.0466666668 0
0.2000000028 -0.0466666668 0
0.1866666676 -0.0466666668 0
0.173333332 -0.0466666668 0
0.1599999964 -0.0466666668 0
0.1466666608 -0.0466666668 0
0.1333333404 -0.0466666668 0
0.1199999972 -0.0466666668 0
0.1066666692 -0.0466666668 0
0.0933333336 -0.0466666668 0
0.0799999984 -0.0466666668 0
0.06666667 -0.0466666668 0
0.0533333348 -0.0466666668 0
0.03999999912 -0.0466666668 0
0.02666666732 -0.0466666668 0
0.01333333364 -0.0466666668 0
0.0 -0.0466666668 0
0.400000004 -0.0599999988 0
0.3866666556 -0.0599999988 0
0.3733333348 -0.0599999988 0
0.3600000144 -0.0599999988 0
0.346666664 -0.0599999988 0
0.3333333432 -0.0599999988 0
0.3199999928 -0.0599999988 0
0.3066666724 -0.0599999988 0
0.293333322 -0.0599999988 0
0.2800000012 -0.0599999988 0
0.2666666804 -0.0599999988 0
0.25333333 -0.0599999988 0
0.2399999948 -0.0599999988 0
0.226666674 -0.0599999988 0
0.2133333384 -0.0599999988 0
0.2000000028 -0.0599999988 0
0.1866666676 -0.0599999988 0
0.173333332 -0.0599999988 0
0.1599999964 -0.0599999988 0
0.1466666608 -0.0599999988 0
0.1333333404 -0.0599999988 0
0.1199999972 -0.0599999988 0
0.1066666692 -0.0599999988 0
0.0933333336 -0.0599999988 0
0.0799999984 -0.0599999988 0
0.06666667 -0.0599999988 0
0.0533333348 -0.0599999988 0
0.03999999912 -0.0599999988 0
0.02666666732 -0.0599999988 0
0.01333333364 -0.0599999988 0
0.0 -0.0599999988 0
0.400000004 -0.0733333304 0
0.3866666556 -0.0733333304 0
0.3733333348 -0.0733333304 0
0.3600000144 -0.0733333304 0
0.346666664 -0.0733333304 0
0.3333333432 -0.0733333304 0
0.3199999928 -0.0733333304 0
0.3066666724 -0.0733333304 0
0.293333322 -0.0733333304 0
0.2800000012 -0.0733333304 0
0.2666666804 -0.0733333304 0
0.25333333 -0.0733333304 0
0.2399999948 -0.0733333304 0
0.226666674 -0.0733333304 0
0.2133333384 -0.0733333304 0
0.2000000028 -0.0733333304 0
0.1866666676 -0.0733333304 0
0.173333332 -0.0733333304 0
0.1599999964 -0.0733333304 0
0.1466666608 -0.0733333304 0
0.1333333404 -0.0733333304 0
0.1199999972 -0.0733333304 0
0.1066666692 -0.0733333304 0
0.0933333336 -0.0733333304 0
0.0799999984 -0.0733333304 0
0.06666667 -0.0733333304 0
0.0533333348 -0.0733333304 0
0.03999999912 -0.0733333304 0
0.02666666732 -0.0733333304 0
0.01333333364 -0.0733333304 0
0.0 -0.0733333304 0
0.400000004 -0.086666666 0
0.3866666556 -0.086666666 0
0.3733333348 -0.086666666 0
0.3600000144 -0.086666666 0
0.346666664 -0.086666666 0
0.3333333432 -0.086666666 0
0.3199999928 -0.086666666 0
0.3066666724 -0.086666666 0
0.293333322 -0.086666666 0
0.2800000012 -0.086666666 0
0.2666666804 -0.086666666 0
0.25333333 -0.086666666 0
0.2399999948 -0.086666666 0
0.226666674 -0.086666666 0
0.2133333384 -0.086666666 0
0.2000000028 -0.086666666 0
0.1866666676 -0.086666666 0
0.173333332 -0.086666666 0
0.1599999964 -0.086666666 0
0.1466666608 -0.086666666 0
0.1333333404 -0.086666666 0
0.1199999972 -0.086666666 0
0.1066666692 -0.086666666 0
0.0933333336 -0.086666666 0
0.0799999984 -0.086666666 0
0.06666667 -0.086666666 0
0.0533333348 -0.086666666 0
0.03999999912 -0.086666666 0
0.02666666732 -0.086666666 0
0.01333333364 -0.086666666 0
0.0 -0.086666666 0
0.400000004 -0.1000000016 0
0.3866666556 -0.1000000016 0
0.3733333348 -0.1000000016 0
0.3600000144 -0.1000000016 0
0.346666664 -0.1000000016 0
0.3333333432 -0.1000000016 0
0.3199999928 -0.1000000016 0
0.3066666724 -0.1000000016 0
0.293333322 -0.1000000016 0
0.2800000012 -0.1000000016 0
0.2666666804 -0.1000000016 0
0.25333333 -0.1000000016 0
0.2399999948 -0.1000000016 0
0.226666674 -0.1000000016 0
0.2133333384 -0.1000000016 0
0.2000000028 -0.1000000016 0
0.1866666676 -0.1000000016 0
0.173333332 -0.1000000016 0
0.1599999964 -0.1000000016 0
0.1466666608 -0.1000000016 0
0.1333333404 -0.1000000016 0
0.1199999972 -0.1000000016 0
0.1066666692 -0.1000000016 0
0.0933333336 -0.1000000016 0
0.0799999984 -0.1000000016 0
0.06666667 -0.1000000016 0
0.0533333348 -0.1000000016 0
0.03999999912 -0.1000000016 0
0.02666666732 -0.1000000016 0
0.01333333364 -0.1000000016 0
0.0 -0.1000000016 0
0.400000004 -0.1133333372 0
0.3866666556 -0.1133333372 0
0.3733333348 -0.1133333372 0
0.3600000144 -0.1133333372 0
0.346666664 -0.1133333372 0
0.3333333432 -0.1133333372 0
0.3199999928 -0.1133333372 0
0.3066666724 -0.1133333372 0
0.293333322 -0.1133333372 0
0.2800000012 -0.1133333372 0
0.2666666804 -0.1133333372 0
0.25333333 -0.1133333372 0
0.2399999948 -0.1133333372 0
0.226666674 -0.1133333372 0
0.2133333384 -0.1133333372 0
0.2000000028 -0.1133333372 0
0.1866666676 -0.1133333372 0
0.173333332 -0.1133333372 0
0.1599999964 -0.1133333372 0
0.1466666608 -0.1133333372 0
0.1333333404 -0.1133333372 0
0.1199999972 -0.1133333372 0
0.1066666692 -0.1133333372 0
0.0933333336 -0.1133333372 0
0.0799999984 -0.1133333372 0
0.06666667 -0.1133333372 0
0.0533333348 -0.1133333372 0
0.03999999912 -0.1133333372 0
0.02666666732 -0.1133333372 0
0.01333333364 -0.1133333372 0
0.0 -0.1133333372 0
0.400000004 -0.1266666652 0
0.3866666556 -0.1266666652 0
0.3733333348 -0.1266666652 0
[...]
POINT_DATA 961
SCALARS Temp float 1
LOOKUP_TABLE default
0.7305889201897227
0.7597688814102367
0.7807095007431708
0.7959354290856064
0.8070916401236993
0.8153061289414321
0.8213819575338479
0.8258971388043568
0.8292723735903235
0.8318159139201137
0.8337563017201126
0.8352650699316059
0.8364733053306278
0.8374845388020704
0.8383843632881107
0.8392480635549558
0.8401476029158336
0.841158045844537
0.8423643052904002
0.8438688617345309
0.845801163852769
0.8483300049465355
0.8516792991858263
0.8561504969524746
0.8621526778664659
0.8702452581347033
0.8811988360194967
0.8960842074704286
0.9164079547250195
0.9443565648148287
0.9833983582792252
0.7711226406377335
0.7997356515530594
0.8204513546654311
0.8355939404372186
0.8467118448405481
0.8549106102282469
0.8609817040883497
0.8654976210679141
0.8688761784895702
0.8714241279711442
0.8733692410595776
0.874882688256704
0.876095428054982
0.8771109885114305
0.8780150294636615
0.8788829436139778
0.8797868171789328
0.8808018368859822
0.8820130188367473
0.8835229004745255
0.8854608983266952
0.8879956022931542
0.8913504276890394
0.8958257803101045
0.9018287172886491
0.9099148020524541
0.9208472296649757
0.9356814931980917
0.9558923138081857
0.9835559725487245
1.0216797965506774
2.6688735228303644
2.6731244580141222
2.6849719368144975
2.6958989252129544
2.704934725807754
2.7121239374807296
2.717752970523811
2.722131017138489
2.7255323328005447
2.7281845394045536
2.7302717914831827
2.7319421532845993
2.7333155939124962
2.7344914651189005
2.7355551561300158
2.736584044067023
2.7376530280084594
2.7388399564384467
2.7402312413418493
2.7419280078151425
2.7440531225768776
2.7467593340977805
2.750238664748159
2.7547326858189147
2.760542071111354
2.7680305307930664
2.777609040604699
2.7896584127028956
2.8042373144063912
2.8200405816803076
2.825714121739108
4.5429733489760995
4.545293172565341
4.5509869262117455
4.558101515232316
4.5648472761748256
4.570695770354303
4.575561126914084
4.579525189503413
4.582723319727935
4.585298175624655
4.587382089273349
4.589091801221968
4.590528683874144
4.591781326633626
4.592929038773857
4.594045690774472
4.595203691550206
4.5964780430140175
4.597950504530934
4.59971387833475
4.601876324631618
4.604565405763731
4.607930973911284
4.612145099723045
4.61739474433716
4.623857907297694
4.6316418062388856
4.6406301004285835
4.650115300979309
4.657708465606519
4.660802157320642
6.411537756836294
6.412772356775153
6.416108977645233
6.420626699773137
6.425437782360144
6.429958407761061
6.43394827765308
6.437350645090001
6.44019820060045
6.442562075894213
6.444526119622847
6.446174660848921
6.447587513196027
6.448838825718821
6.449997924037076
6.451131194447332
6.452304505841786
6.453585857600185
6.455048051994063
6.456771155179465
6.45884436482961
6.461366606041359
6.464444507755944
6.468185404287224
6.472680720900097
6.477971336729169
6.483979401531461
6.4903823899757604
6.496399820191854
6.500845942815197
6.502491383795952
8.276761810913486
8.277513788413458
8.279594506590907
8.282573558015843
8.285952798664885
8.28933485177201
8.292477056279303
8.295269912254605
8.29768810318163
8.29975353099443
8.30151190074223
8.303019115891878
8.304334058090769
8.305515301091434
8.306620141156273
8.307704975466962
8.308826420038992
8.310042727699926
8.311415167962497
8.313008992264752
8.314893462019603
8.317140144442071
8.319818123158324
8.322984085274859
8.326663918821922
8.330821202321973
8.335307768302382
8.339798143359307
8.34376080469553
8.346530118989605
8.347531211211647
10.139736936940134
10.140215881155507
10.141566153645039
10.143562249950845
10.145922272845592
10.148388747623407
10.150774941114339
10.152971390877113
10.15493081473694
10.156647804075899
10.158142320834168
10.15944826975355
10.160606404849105
10.161660382243523
10.162654890629774
10.163635093594841
10.16464682679671
10.165737098741456
10.16695451871691
10.168349240186272
10.169971893795216
10.17187079502176
10.174086364090954
10.176641443002643
10.17952584593342
10.182674126232227
10.185938399278399
10.18906804270675
10.19171841475349
10.193512585494565
10.194149192332363
12.000944209587427
12.001252714261684
12.002132102404392
12.003459300743435
12.005071750417985
12.006808807828438
12.008540859652555
12.010180686568383
12.011681063553983
12.013025856786994
12.0142202831696
12.01528289852598
12.016239938864153
12.017121753451654
12.017960792262839
12.018790653419078
12.019645768113701
12.020561341233147
12.02157321094609
12.022717262793588
12.024027961786551
12.02553546913281
12.027260658499179
12.029207409025899
12.031351765591069
12.03362878428804
12.035920592453637
12.0380530648697
12.039810981507912
12.040976815987964
12.041385982407586
13.860622515570125
13.860812946841342
13.861359750560363
13.862196405396496
13.863232014419077
13.864372107918738
13.865535294446078
13.866662001105254
13.867715863682172
13.868680449124241
13.869554297559484
13.870346121677105
13.871071024099551
13.871747882428096
13.872397711760263
13.873042743297054
13.87370595131485
13.87441075928875
13.875180677982144
13.876038609672275
13.87700551675674
13.878098122337644
13.879325278799453
13.880682822481687
13.88214707037097
13.883668099718598
13.885165335374298
13.886529322002415
13.887633380093376
13.888355780367574
13.888607501087488
15.718888207979651
15.718987827148775
15.71927546771674
15.719720333366443
15.720279429327803
15.720906628322128
15.72156047018656
15.722208888941823
15.72283071502361
15.723414803002258
15.723958024040913
15.724463031775903
15.724936339067668
15.725386888505883
15.725825083447226
15.726262178038416
15.726709900288895
15.727180166783146
15.727684756453314
15.72823480111959
15.72883993828071
15.729506972088585
15.730237898180837
15.73102729344898
15.731859287288955
15.732704829089702
15.733520506317044
15.73425050484752
15.734832913549488
15.73521010749751
15.735340844032056
17.575797010082027
17.57581813943271
17.575880240482523
17.57597968848739
17.576111153263632
17.576268436638102
17.576445299470368
17.57663610203461
17.576836195224896
17.577042063609486
17.577251296276728
17.577462448367218
17.57767485779494
17.57788845845306
17.578103603257855
17.57832090286385
17.578541078988437
17.57876482030859
17.57899263138492
17.579224663674935
17.57946051977811
17.579699029968797
17.57993800425035
17.58017399463811
17.580402111157415
17.580615978879063
17.580807932437388
17.580969531954718
17.581092420425524
17.58116942344962
17.581195667556198
17.67940108407941
17.679418556166837
17.67947009960901
17.679553233722764
17.679664244265705
17.67979869540201
17.679951963584532
17.680119685194928
17.68029807013094
17.680484060453374
17.68067536863878
17.680870423549354
17.68106826492036
17.681268417332713
17.681470756042835
17.68167537356806
17.68188245093828
17.68209212752975
17.682304365847724
17.682518806582813
17.6827346115736
17.682950299617417
17.68316358260997
17.683371233810774
17.683569018766036
17.683751744689758
17.683913476835784
17.684047952763088
17.684149182884987
17.68421216011327
17.684233544034587
17.782897460357567
17.782912198430047
17.782955801887805
17.78302652209834
17.783121702442067
17.783238100702373
17.78337223997664
17.78352072051354
17.783680459831437
17.78384883631159
17.784023751872503
17.784203622947974
17.784387324366087
17.78457410763272
17.784763502731494
17.7849552124164
17.78514900517247
17.785344604504218
17.78554157486572
17.7857392036902
17.785936380935055
17.78613148347342
17.78632227201743
17.78650582648885
17.78667853848085
17.786836194971443
17.786974175335665
17.78708776908824
17.787172595526364
17.787225070112715
17.787242835874505
17.88629132003491
17.88630396492596
17.886341459944735
17.886402538679874
17.886485253661476
17.88658718471631
17.88670567376643
17.886838042742426
17.88698177360812
17.887134627798535
17.887294712460342
17.887460493194823
17.887630767765994
17.887804615168882
17.88798132579266
17.888160320475617
17.88834106523844
17.888522981414912
17.888705353773812
17.88888723844927
17.88906737391341
17.889244102668023
17.889415309867736
17.889578398880666
17.88973031361703
17.889867628171146
17.889986712020587
17.890083968722255
17.890156130434853
17.89020057007151
17.890215580694733
17.989586546354747
17.989597556303533
17.989630261184207
17.989683720101763
17.989756471113072
17.989846668993547
17.989952245048926
17.99007106036085
17.99020103958256
17.990340266174332
17.99048704318596
17.990639914899894
17.990797657785013
17.99095925030271
17.99112382457873
17.991290606238977
17.991458848928858
17.991627764164843
17.991796450172277
17.991963822613904
17.992128551010243
17.99228900786959
17.99244323486679
17.99258894119968
17.992723538094307
17.99284422185621
17.992948106919393
17.99303240366797
17.99309462676415
17.99313280777293
17.993145680478733
18.09278606897899
18.0927957807812
18.09282466981069
18.092872019508935
18.09293670640809
18.093017293088835
18.093112138734913
18.093219507769472
18.093337669125138
18.09346497051263
18.093599890689738
18.093741063333788
18.093887277529575
18.094037461273857
18.09419064906561
18.09434593848134
18.0945024415997
18.094659232172543
18.09481529246802
18.094969462966745
18.09512039858089
18.095266537377135
18.095406084437776
18.09553702230967
18.095657148393705
18.095764146950486
18.09585569409121
18.09592959006314
18.095983908037955
18.09601714138507
18.09602832925467
18.192583129144012
18.19259179194753
18.19261758891992
18.192659961076668
18.192718024974273
18.19279063657833
18.192876468931345
18.192974089851567
18.193082035783103
18.1931988690733
18.193323221466933
18.19345381703634
18.193589477650107
18.193729115411543
18.193871711848026
18.194016287592817
18.194161867653058
18.19430744304622
18.194451932549338
18.194594147564036
18.194732763303374
18.194866301201376
18.194993123825
18.195111451086223
18.195219396013105
18.19531502508074
18.195396440275456
18.195461877770754
18.19550981532238
18.195539075902033
18.195548914469143
18.285647075341757
18.285654875850057
18.285678125058407
18.28571637664313
18.285768920171833
18.285834825708456
18.285912999190067
18.28600223852359
18.286101288839287
18.286208886482356
18.286323794635592
18.28644482402013
18.286570840744425
18.286700764515643
18.28683355619135
18.286968197509555
18.28710366734218
18.287238914978953
18.28737283378458
18.28750423783885
18.287631844192777
18.287754264666425
18.287870007474655
18.287977495603872
18.288075099079226
18.2881611846306
18.288234179652846
18.28829264620521
18.288335359393052
18.288361381393702
18.28837012248362
18.371945561174147
18.37195264531472
18.37197377371347
18.37200858180869
18.372056485612912
18.3721167133476
18.37218834551441
18.372270355811512
18.372361652823244
18.37246111384662
18.37256761392038
18.372680043976622
18.372797319640473
18.372918383143393
18.373042196856186
18.37316773059567
18.37329394638487
18.37341978085455
18.37354412815296
18.37366582551383
18.373783643550937
18.373896284389318
18.374002387227232
18.37410054693548
18.374189342305364
18.37426737663008
18.374333327649254
18.37438600346097
18.374424400404447
18.374447756715803
18.37445559617158
18.451448739638103
18.451455223925457
18.45147457351406
18.451506483986407
18.451550464944802
18.451605862787684
18.451671890152404
18.451747656099194
18.4518321979153
18.451924507268867
18.45202355392589
18.452128301486745
18.452237716386996
18.45235077216419
18.452466447239708
18.45258371786042
18.452701549316018
18.4528188853184
18.45293463794204
18.453047679829325
18.453156840229923
18.453260907330026
18.45335863600422
18.4534487656673
18.453530044653007
18.453601263351157
18.453661293424982
18.45370913045707
18.453743937234176
18.45376508321256
18.453772176238797
18.524129196167024
18.524135175586977
18.524153025980702
18.52418248771143
18.52422314045109
18.52427441983369
18.5243356394454
18.52440601337981
18.524484680834444
18.524570726523635
18.524663200217976
18.524761130380497
18.52486353300315
18.52496941735169
18.52507778674448
18.525187635634424
18.525297945645136
18.525407680190675
18.525515779658164
18.525621158463576
18.525722705134545
18.52581928736464
18.525909760878235
18.52599298611836
18.526067849190106
18.526133289038498
18.526188328510443
18.526232107252227
18.526263914522524
18.526283218662474
18.526289690528174
18.58996190335649
18.589967456931056
18.589984041353155
18.59001143068037
18.59004925757204
18.590097025668317
18.590154126312168
18.590219855656734
18.590293434001982
18.590374021937805
18.59046073664883
18.590552663809305
18.590648866100345
18.590748389865016
18.590850267984727
18.590953519968366
18.59105715153054
18.591160153082416
18.59126149875822
18.59136014695987
18.59145504324123
18.59154512708451
18.591629341229503
18.591706647085445
18.591776042759278
18.591836585534242
18.591887416755938
18.59192778755019
18.591957084074558
18.591974849881435
18.591980803521587
18.648924582243882
18.64892977702162
18.64894529380946
18.64897093223362
18.649006365346587
18.649051148998804
18.649104734812493
18.649166483384963
18.64923567978378
18.649311546528104
18.64939325741616
18.64947994801868
18.649570723832777
18.649664667480607
18.64976084303965
18.649858298291832
18.64995606686816
18.650053169556177
18.650148616101966
18.650241408225313
18.650330544412085
18.650415027739083
18.650493875291236
18.65056613234415
18.65063088798871
18.650687293942127
18.65073458477008
18.650772098305797
18.65079929541266
18.650815777254053
18.650821298759244
18.700996937325435
18.701001831296175
18.70101645233182
18.701040619571184
18.70107403702037
18.701116300797196
18.701166909426263
18.70122527423874
18.701290732061906
18.701362555868858
18.70143996672452
18.701522143173882
18.701608229044382
18.701697340952926
18.701788573632484
18.701881003713883
18.701973693704314
18.702065695314392
18.70215605323383
18.702243809868527
18.702328011407793
18.702407716252758
18.702482004316856
18.702549990102295
18.70261083638269
18.702663770176045
18.70270809945419
18.702743229648018
18.70276867941067
18.7027840942173
18.70278925687285
18.746161610888823
18.74616625514196
18.74618013211259
18.746203075853103
18.746234814115805
18.746274974088486
18.746323090771774
18.746378615366233
18.746440925916684
18.746509336250845
18.746583106508375
18.746661451671436
18.746743549053537
18.74682854596668
18.74691556572067
18.747003712478886
18.747092076527686
18.747179739030265
18.747265777184044
18.747349270137647
18.747429305890456
18.747504990039104
18.74757545486317
18.747639871450563
18.747697461837973
18.74774751280682
18.747789389958502
18.74782255133238
18.747846560252388
18.7478610962753
18.747865963575723
18.78440323265481
18.784407673017263
18.784420942179768
18.784442885539164
18.78447324897006
18.78451168349224
18.78455775227886
18.78461093760452
18.78467065000683
18.784736235979828
18.78480698744679
18.784882149636562
18.784960928306646
18.785042497480426
18.78512600589279
18.785210582586807
18.785295343077127
18.785379395095138
18.78546184469713
18.78554180297445
18.78561839348186
18.785690761125664
18.785758081003554
18.785819569741555
18.78587449643208
18.785922194779463
18.785962075215803
18.78599363640089
18.786016475949605
18.786030299468784
18.78603492742057
18.81570913838038
18.815713416680236
18.815726202547086
18.815747349880365
18.815776618175356
18.815813676441323
18.815858109242136
18.8159094226272
18.81596705223207
18.816030370078256
18.816098693272757
18.816171291395833
18.816247393509368
18.81632619591248
18.816406868876637
18.81648856274368
18.81657041469552
18.81665155517402
18.81673111462966
18.81680823075272
18.816882056226603
18.81695176765618
18.817016574171603
18.817075728135936
18.817128535168518
18.817174365062943
18.81721266246803
18.817242956854795
18.81726487172188
18.8172781322687
18.817282571178517
18.84006896624291
18.840073121314784
18.840085539594117
18.840106081150587
18.840134515386325
18.840170524441127
18.840213708566278
18.84026359135476
18.840319627103277
18.84038120698917
18.840447667221348
18.84051829607607
18.84059234074086
18.840669015063135
18.840747506467064
18.840826982380804
18.840906597405176
18.840985500178885
18.84106284054564
18.841137777116842
18.841209485216595
18.841277165799312
18.841340053852107
18.84139742862481
18.841448622983933
18.841493033448142
18.84153012985062
18.841559464227736
18.84158067896076
18.84159351350094
18.8415978094043
18.85747454318829
18.85747861169703
18.8574907717081
18.85751088747741
18.857538735140167
18.857574005784073
18.857616310389105
18.857665184602375
18.85772009561544
18.85778044793296
18.85784559115815
18.85791482679197
18.857987414961176
18.858062582151437
18.85813952823234
18.858217433089155
18.85829546403962
18.85837278297702
18.85844855379581
18.858521950154024
18.85859216352477
18.85865841208563
18.858719948969174
18.858776072158655
18.85882613338618
18.858869547574468
18.858905801820928
18.858934463573288
18.858955188071164
18.858967724449624
18.85897192028485
18.867920204156228
18.86792422129472
18.867936228018735
18.867956091011898
18.867983590318723
18.868018422231437
18.868060203985543
18.868108478278117
18.868162719871165
18.868222341128643
18.868286699593433
18.868355104649844
18.868426824183047
18.86850109229892
18.868577116405753
18.86865408395694
18.868731170002395
18.86880754448296
18.86888237979568
18.868954858661876
18.86902418223086
18.86908957894491
18.869150312695727
18.869205692522577
18.869255081245463
18.869297904565098
18.86933365965885
18.869361922950233
18.8693823571531
18.869394717023226
18.86939885362771
18.871402462302438
18.871406462410736
18.87141841831406
18.871438197491706
18.871465581270133
18.87150026764988
18.871541875922134
18.87158995110442
18.87164397045508
18.871703348935544
18.871767446719385
18.8718355758101
18.871907006677944
18.871980975974676
18.872056693632782
18.87213334964327
18.872210121649694
18.87228618229043
18.87236070680802
18.87243288095016
18.87250190908898
18.872567023076623
18.872627490369986
18.87268262366335
18.872731789434823
18.872774416934664
18.872810006654827
18.87283813796674
18.872858476036555
18.87287077746288
18.87287489445681
