# vtk DataFile Version 2.0
Unstructured Grid Example
ASCII
DATASET UNSTRUCTURED_GRID

POINTS 961 float
0.400000004 0.01999999956 0
0.3866666556 0.01999999956 0
0.3733333348 0.01999999956 0
0.3600000144 0.01999999956 0
0.346666664 0.01999999956 0
0.3333333432 0.01999999956 0
0.3199999928 0.01999999956 0
0.3066666724 0.01999999956 0
0.293333322 0.01999999956 0
0.2800000012 0.01999999956 0
0.2666666804 0.01999999956 0
0.25333333 0.01999999956 0
0.2399999948 0.01999999956 0
0.226666674 0.01999999956 0
0.2133333384 0.01999999956 0
0.2000000028 0.01999999956 0
0.1866666676 0.01999999956 0
0.173333332 0.01999999956 0
0.1599999964 0.01999999956 0
0.1466666608 0.01999999956 0
0.1333333404 0.01999999956 0
0.1199999972 0.01999999956 0
0.1066666692 0.01999999956 0
0.0933333336 0.01999999956 0
0.0799999984 0.01999999956 0
0.06666667 0.01999999956 0
0.0533333348 0.01999999956 0
0.03999999912 0.01999999956 0
0.02666666732 0.01999999956 0
0.01333333364 0.01999999956 0
0.0 0.01999999956 0
0.400000004 0.00666666684 0
0.3866666556 0.00666666684 0
0.3733333348 0.00666666684 0
0.3600000144 0.00666666684 0
0.346666664 0.00666666684 0
0.3333333432 0.00666666684 0
0.3199999928 0.00666666684 0
0.3066666724 0.00666666684 0
0.293333322 0.00666666684 0
0.2800000012 0.00666666684 0
0.2666666804 0.00666666684 0
0.25333333 0.00666666684 0
0.2399999948 0.00666666684 0
0.226666674 0.00666666684 0
0.2133333384 0.00666666684 0
0.2000000028 0.00666666684 0
0.1866666676 0.00666666684 0
0.173333332 0.00666666684 0
0.1599999964 0.00666666684 0
0.1466666608 0.00666666684 0
0.1333333404 0.00666666684 0
0.1199999972 0.00666666684 0
0.1066666692 0.00666666684 0
0.0933333336 0.00666666684 0
0.0799999984 0.00666666684 0
0.06666667 0.00666666684 0
0.0533333348 0.00666666684 0
0.03999999912 0.00666666684 0
0.02666666732 0.00666666684 0
0.01333333364 0.00666666684 0
0.0 0.00666666684 0
0.400000004 -0.00666666684 0
0.3866666556 -0.00666666684 0
0.3733333348 -0.00666666684 0
0.3600000144 -0.00666666684 0
0.346666664 -0.00666666684 0
0.3333333432 -0.00666666684 0
0.3199999928 -0.00666666684 0
0.3066666724 -0.00666666684 0
0.293333322 -0.00666666684 0
0.2800000012 -0.00666666684 0
0.2666666804 -0.00666666684 0
0.25333333 -0.00666666684 0
0.2399999948 -0.00666666684 0
0.226666674 -0.00666666684 0
0.2133333384 -0.00666666684 0
0.2000000028 -0.00666666684 0
0.1866666676 -0.00666666684 0
0.173333332 -0.00666666684 0
0.1599999964 -0.00666666684 0
0.1466666608 -0.00666666684 0
0.1333333404 -0.00666666684 0
0.1199999972 -0.00666666684 0
0.1066666692 -0.00666666684 0
0.0933333336 -0.00666666684 0
0.0799999984 -0.00666666684 0
0.06666667 -0.00666666684 0
0.0533333348 -0.00666666684 0
0.03999999912 -0.00666666684 0
0.02666666732 -0.00666666684 0
0.01333333364 -0.00666666684 0
0.0 -0.00666666684 0
0.400000004 -0.01999999956 0
0.3866666556 -0.01999999956 0
0.3733333348 -0.01999999956 0
0.3600000144 -0.01999999956 0
0.346666664 -0.01999999956 0
0.3333333432 -0.01999999956 0
0.3199999928 -0.01999999956 0
0.3066666724 -0.01999999956 0
0.293333322 -0.01999999956 0
0.2800000012 -0.01999999956 0
0.2666666804 -0.01999999956 0
0.25333333 -0.01999999956 0
0.2399999948 -0.01999999956 0
0.226666674 -0.01999999956 0
0.2133333384 -0.01999999956 0
0.2000000028 -0.01999999956 0
0.1866666676 -0.01999999956 0
0.173333332 -0.01999999956 0
0.1599999964 -0.01999999956 0
0.1466666608 -0.01999999956 0
0.1333333404 -0.01999999956 0
0.1199999972 -0.01999999956 0
0.1066666692 -0.01999999956 0
0.0933333336 -0.01999999956 0
0.0799999984 -0.01999999956 0
0.06666667 -0.01999999956 0
0.0533333348 -0.01999999956 0
0.03999999912 -0.01999999956 0
0.02666666732 -0.01999999956 0
0.01333333364 -0.01999999956 0
0.0 -0.01999999956 0
0.400000004 -0.03333333508 0
0.3866666556 -0.03333333508 0
0.3733333348 -0.03333333508 0
0.3600000144 -0.03333333508 0
0.346666664 -0.03333333508 0
0.3333333432 -0.03333333508 0
0.3199999928 -0.03333333508 0
0.3066666724 -0.03333333508 0
0.293333322 -0.03333333508 0
0.2800000012 -0.03333333508 0
0.2666666804 -0.03333333508 0
0.25333333 -0.03333333508 0
0.2399999948 -0.03333333508 0
0.226666674 -0.03333333508 0
0.2133333384 -0.03333333508 0
0.2000000028 -0.03333333508 0
0.1866666676 -0.03333333508 0
0.173333332 -0.03333333508 0
0.1599999964 -0.03333333508 0
0.1466666608 -0.03333333508 0
0.1333333404 -0.03333333508 0
0.1199999972 -0.03333333508 0
0.1066666692 -0.03333333508 0
0.0933333336 -0.03333333508 0
0.0799999984 -0.03333333508 0
0.06666667 -0.03333333508 0
0.0533333348 -0.03333333508 0
0.03999999912 -0.03333333508 0
0.02666666732 -0.03333333508 0
0.01333333364 -0.03333333508 0
0.0 -0.03333333508 0
0.400000004 -0.0466666668 0
0.3866666556 -0.0466666668 0
0.3733333348 -0.0466666668 0
0.3600000144 -0.0466666668 0
0.346666664 -0.0466666668 0
0.3333333432 -0.0466666668 0
0.3199999928 -0.0466666668 0
0.3066666724 -0.0466666668 0
0.293333322 -0.0466666668 0
0.2800000012 -0.0466666668 0
0.2666666804 -0.0466666668 0
0.25333333 -0.0466666668 0
0.2399999948 -0.0466666668 0
0.226666674 -0.0466666668 0
0.2133333384 -0.0466666668 0
0.2000000028 -0.0466666668 0
0.1866666676 -0.0466666668 0
0.173333332 -0.0466666668 0
0.1599999964 -0.0466666668 0
0.1466666608 -0.0466666668 0
0.1333333404 -0.0466666668 0
0.1199999972 -0.0466666668 0
0.1066666692 -0.0466666668 0
0.0933333336 -0.0466666668 0
0.0799999984 -0.0466666668 0
0.06666667 -0.0466666668 0
0.0533333348 -0.0466666668 0
0.03999999912 -0.0466666668 0
0.02666666732 -0.0466666668 0
0.01333333364 -0.0466666668 0
0.0 -0.0466666668 0
0.400000004 -0.0599999988 0
0.3866666556 -0.0599999988 0
0.3733333348 -0.0599999988 0
0.3600000144 -0.0599999988 0
0.346666664 -0.0599999988 0
0.3333333432 -0.0599999988 0
0.3199999928 -0.0599999988 0
0.3066666724 -0.0599999988 0
0.293333322 -0.0599999988 0
0.2800000012 -0.0599999988 0
0.2666666804 -0.0599999988 0
0.25333333 -0.0599999988 0
0.2399999948 -0.0599999988 0
0.226666674 -0.0599999988 0
0.2133333384 -0.0599999988 0
0.2000000028 -0.0599999988 0
0.1866666676 -0.0599999988 0
0.173333332 -0.0599999988 0
0.1599999964 -0.0599999988 0
0.1466666608 -0.0599999988 0
0.1333333404 -0.0599999988 0
0.1199999972 -0.0599999988 0
0.1066666692 -0.0599999988 0
0.0933333336 -0.0599999988 0
0.0799999984 -0.0599999988 0
0.06666667 -0.0599999988 0
0.0533333348 -0.0599999988 0
0.03999999912 -0.0599999988 0
0.02666666732 -0.0599999988 0
0.01333333364 -0.0599999988 0
0.0 -0.0599999988 0
0.400000004 -0.0733333304 0
0.3866666556 -0.0733333304 0
0.3733333348 -0.0733333304 0
0.3600000144 -0.0733333304 0
0.346666664 -0.0733333304 0
0.3333333432 -0.0733333304 0
0.3199999928 -0.0733333304 0
0.3066666724 -0.0733333304 0
0.293333322 -0.0733333304 0
0.2800000012 -0.0733333304 0
0.2666666804 -0.0733333304 0
0.25333333 -0.0733333304 0
0.2399999948 -0.0733333304 0
0.226666674 -0.0733333304 0
0.2133333384 -0.0733333304 0
0.2000000028 -0.0733333304 0
0.1866666676 -0.0733333304 0
0.173333332 -0.0733333304 0
0.1599999964 -0.0733333304 0
0.1466666608 -0.0733333304 0
0.1333333404 -0.0733333304 0
0.1199999972 -0.0733333304 0
0.1066666692 -0.0733333304 0
0.0933333336 -0.0733333304 0
0.0799999984 -0.0733333304 0
0.06666667 -0.0733333304 0
0.0533333348 -0.0733333304 0
0.03999999912 -0.0733333304 0
0.02666666732 -0.0733333304 0
0.01333333364 -0.0733333304 0
0.0 -0.0733333304 0
0.400000004 -0.086666666 0
0.3866666556 -0.086666666 0
0.3733333348 -0.086666666 0
0.3600000144 -0.086666666 0
0.346666664 -0.086666666 0
0.3333333432 -0.086666666 0
0.3199999928 -0.086666666 0
0.3066666724 -0.086666666 0
0.293333322 -0.086666666 0
0.2800000012 -0.086666666 0
0.2666666804 -0.086666666 0
0.25333333 -0.086666666 0
0.2399999948 -0.086666666 0
0.226666674 -0.086666666 0
0.2133333384 -0.086666666 0
0.2000000028 -0.086666666 0
0.1866666676 -0.086666666 0
0.173333332 -0.086666666 0
0.1599999964 -0.086666666 0
0.1466666608 -0.086666666 0
0.1333333404 -0.086666666 0
0.1199999972 -0.086666666 0
0.1066666692 -0.086666666 0
0.0933333336 -0.086666666 0
0.0799999984 -0.086666666 0
0.06666667 -0.086666666 0
0.0533333348 -0.086666666 0
0.03999999912 -0.086666666 0
0.02666666732 -0.086666666 0
0.01333333364 -0.086666666 0
0.0 -0.086666666 0
0.400000004 -0.1000000016 0
0.3866666556 -0.1000000016 0
0.3733333348 -0.1000000016 0
0.3600000144 -0.1000000016 0
0.346666664 -0.1000000016 0
0.3333333432 -0.1000000016 0
0.3199999928 -0.1000000016 0
0.3066666724 -0.1000000016 0
0.293333322 -0.1000000016 0
0.2800000012 -0.1000000016 0
0.2666666804 -0.1000000016 0
0.25333333 -0.1000000016 0
0.2399999948 -0.1000000016 0
0.226666674 -0.1000000016 0
0.2133333384 -0.1000000016 0
0.2000000028 -0.1000000016 0
0.1866666676 -0.1000000016 0
0.173333332 -0.1000000016 0
0.1599999964 -0.1000000016 0
0.1466666608 -0.1000000016 0
0.1333333404 -0.1000000016 0
0.1199999972 -0.1000000016 0
0.1066666692 -0.1000000016 0
0.0933333336 -0.1000000016 0
0.0799999984 -0.1000000016 0
0.06666667 -0.1000000016 0
0.0533333348 -0.1000000016 0
0.03999999912 -0.1000000016 0
0.02666666732 -0.1000000016 0
0.01333333364 -0.1000000016 0
0.0 -0.1000000016 0
0.400000004 -0.1133333372 0
0.3866666556 -0.1133333372 0
0.3733333348 -0.1133333372 0
0.3600000144 -0.1133333372 0
0.346666664 -0.1133333372 0
0.3333333432 -0.1133333372 0
0.3199999928 -0.1133333372 0
0.3066666724 -0.1133333372 0
0.293333322 -0.1133333372 0
0.2800000012 -0.1133333372 0
0.2666666804 -0.1133333372 0
0.25333333 -0.1133333372 0
0.2399999948 -0.1133333372 0
0.226666674 -0.1133333372 0
0.2133333384 -0.1133333372 0
0.2000000028 -0.1133333372 0
0.1866666676 -0.1133333372 0
0.173333332 -0.1133333372 0
0.1599999964 -0.1133333372 0
0.1466666608 -0.1133333372 0
0.1333333404 -0.1133333372 0
0.1199999972 -0.1133333372 0
0.1066666692 -0.1133333372 0
0.0933333336 -0.1133333372 0
0.0799999984 -0.1133333372 0
0.06666667 -0.1133333372 0
0.0533333348 -0.1133333372 0
0.03999999912 -0.1133333372 0
0.02666666732 -0.1133333372 0
0.01333333364 -0.1133333372 0
0.0 -0.1133333372 0
0.400000004 -0.1266666652 0
0.3866666556 -0.1266666652 0
0.3733333348 -0.1266666652 0
[...]
POINT_DATA 961
SCALARS Temp float 1
LOOKUP_TABLE default
0.742664000525011
0.7723263006393442
0.7936131832284238
0.8090909930489899
0.8204318669964423
0.8287824284279065
0.8349590029058559
0.8395491509983932
0.8429805234631537
0.8455664650864197
0.847539293918628
0.8490733772316765
0.8503019678762558
0.8513303075036538
0.8522454034417688
0.853123784572954
0.8540386035758378
0.8550661657494435
0.8562927879138248
0.8578226451110645
0.8597873266921281
0.862358417331109
0.8657635339832565
0.8703091116093634
0.8764109933429702
0.8846378432887618
0.8957729969485888
0.9109049469933495
0.9315651712899817
0.9599762832974625
0.9996639169242217
0.7838667742543228
0.812952745140725
0.8340109960281292
0.8494040881225151
0.8607060261477828
0.8690406095026899
0.8752123775418846
0.8798032812693882
0.8832380401550941
0.8858284736533768
0.887806116573808
0.8893449676251317
0.8905781491169514
0.891610899685361
0.8925302945160645
0.8934129720661815
0.8943322098023138
0.8953644371503009
0.8965960756396687
0.8981313580684561
0.9001018409601254
0.9026789020771009
0.9060896511246491
0.9106394610582805
0.9167421189337136
0.9249623722199088
0.9360760306509478
0.9511560308329332
0.9717014624113343
0.999822911517915
1.0385773808707945
2.7129411064359203
2.717262377237952
2.7293058909148256
2.7404138304608674
2.7495994354834474
2.7569080264623906
2.7626307350968404
2.7670818538501254
2.7705401625294064
2.773237037467394
2.7753596696509164
2.7770585634460474
2.778455663722002
2.779651957181444
2.780734237178301
2.781781152528885
2.782868833122115
2.784076407163751
2.785491708155618
2.787217526230525
2.789378752884581
2.7921306556592604
2.795668425441967
2.8002376211300817
2.806143880734325
2.81375691956798
2.823494497575564
2.835743708144806
2.850564166047079
2.8666290901342695
2.8723965654333794
4.617972350409187
4.620330616094822
4.626118772392533
4.633351432885462
4.640209340409779
4.64615530719148
4.651102028778886
4.655132687964909
4.658384870540132
4.66100357948744
4.6631233211033445
4.66486275223123
4.666324907261703
4.667599826018418
4.6687681145790245
4.6699048501899885
4.6710836243612714
4.672380664576858
4.673879067711012
4.675673156389026
4.677872865486702
4.680607853160654
4.684030436187716
4.688315517215486
4.693653135229104
4.700224218483921
4.708137741103359
4.717275419154198
4.726918040801752
4.734637129449924
4.737782103982171
6.517374936921527
6.518630069859114
6.5220222178464
6.526615231585203
6.531506685071253
6.53610309645362
6.540160179732808
6.5436202333473314
6.546516470871307
6.548921181785384
6.550919582033382
6.552597375214518
6.554035674179778
6.555309833008881
6.556490302171688
6.55764454392872
6.558839494470693
6.5601442557626175
6.56163281230104
6.563386532944014
6.5654960695303215
6.5680619627019325
6.5711925848220645
6.574997025682442
6.579568203106667
6.584947652767641
6.5910562170080365
6.597566016004849
6.603683639286652
6.60820370791814
6.609876501715724
8.413379608361025
8.414144171643077
8.416259748460956
8.419288809671817
8.422724965711373
8.426164256492342
8.429359992380213
8.432200843866807
8.434661054673075
8.436762865942478
8.43855271403033
8.440087401043218
8.44142675538653
8.442630291572108
8.443756224802819
8.44486185585555
8.446004707736682
8.44724396735149
8.448641888432741
8.450264772960939
8.452182999860165
8.454469292797006
8.457193851647332
8.460414275682318
8.464156856633501
8.468384547104108
8.472946706506166
8.47751245709054
8.481541465823664
8.484357074430013
8.485374889205799
10.307095243951993
10.307582292725833
10.308955445511426
10.31098546278137
10.313385775489301
10.315894636734743
10.318322206994223
10.320557191702857
10.322551501776356
10.324299611503537
10.325821783051957
10.327152450042945
10.328333007003705
10.32940779725896
10.33042221278762
10.33142212762919
10.332454098667817
10.333565875020378
10.334806833371626
10.336227920740088
10.337880570116948
10.339813862198222
10.342068853191977
10.344668731907301
10.347603114772308
10.35080544529829
10.354125367709958
10.35730809185739
10.360003256468659
10.361827682374036
10.362475012970744
12.19901030595027
12.19932413149868
12.200218717066457
12.201568946870772
12.20320956173703
12.204977244670754
12.206740217602691
12.208409793349531
12.209937936685913
12.211308214393434
12.212525894164825
12.213609800691104
12.214586563715326
12.215486992553236
12.216344030665091
12.217191787740902
12.21806521986013
12.219000069556353
12.220032723506915
12.221199617342974
12.222535743853374
12.224071722405172
12.225828733075517
12.227810682542943
12.229993185343568
12.232310192104904
12.234641852470283
12.236811136799478
12.238599245232836
12.239785038410837
12.240201198774788
14.089367092105224
14.08956092804792
14.090117537963078
14.090969292007813
14.092023776094576
14.093184938864361
14.094370018357388
14.095518427134717
14.096593165833237
14.097577491817745
14.098469879708489
14.099279141813595
14.100020583394215
14.100713344993515
14.101378738376948
14.102039310395417
14.102718362684556
14.103439653456597
14.104227030133517
14.105103722584797
14.106090990210028
14.107205784992411
14.108457060426204
14.109840541560434
14.111332114515651
14.112880995374802
14.114405244972893
14.115793570894162
14.116917176795107
14.117652304099623
14.117908448888349
15.978283371732951
15.978384932100418
15.97867820754098
15.979131882815933
15.97970223619914
15.980342355504671
15.981010066985476
15.981672740858858
15.982308818829457
15.982906927766674
15.983463839510275
15.983982200302627
15.984468576254963
15.984932000835414
15.985382990482233
15.985832925131907
15.986293665718469
15.986777264805962
15.987295635607705
15.987860034736341
15.988480201595968
15.989162997833269
15.98991040002599
15.9907168468715
15.99156616082698
15.992428770908038
15.993260511702971
15.994004616582599
15.99459812700639
15.994982447877792
15.995115644001931
17.865815316248085
17.86583712937171
17.865901256812236
17.86600400299583
17.86613993158447
17.86630271694755
17.866485985169568
17.866683965312912
17.866891887564833
17.86710612905971
17.867324184842733
17.867544527670358
17.867766422296047
17.867989736307873
17.86821476094604
17.86844204784668
17.86867226071663
17.86890602960059
17.86914379806785
17.869385652188328
17.869631122276832
17.869878956480395
17.87012686937004
17.87037130100413
17.870607230459576
17.870828132733394
17.871026176989503
17.87119275145211
17.87131933535622
17.871398617174556
17.871425631659548
17.971127350729738
17.971145450248372
17.971198857862024
17.971285040847505
17.9714002053163
17.971539816820734
17.971699143376604
17.97187371079884
17.97205962195114
17.97225371842213
17.972453620016985
17.972657670398213
17.972864830430993
17.973074550801712
17.97328663633827
17.973501111094492
17.973718088259048
17.973937638600823
17.974159653787314
17.974383699812513
17.97460885810994
17.974833559409536
17.9750554178155
17.975271097615405
17.975476243645247
17.97566553207129
17.975832890856854
17.975971921317452
17.976076508988076
17.976141545306998
17.976163623326247
18.076328959333452
18.07634428740453
18.07638964698708
18.076463249267857
18.076562375062615
18.076683702714732
18.076823665126955
18.076978767053724
18.07714582967634
18.07732213698428
18.07750550010496
18.077694248709065
18.07788717457755
18.078083449280456
18.07828252507861
18.078484028190168
18.078687650786406
18.078893039232007
18.079099678919746
18.079306775136864
18.079513131384523
18.079717032638257
18.079916141231514
18.080107431897982
18.080287184707817
18.08045107076326
18.080594352996492
18.08071220961358
18.080800161069213
18.080854544469187
18.08087295232433
18.18142539258445
18.181438604361905
18.181477788875974
18.181541647143035
18.18162818024975
18.18173490133608
18.181859074603747
18.1819979371397
18.182148882418325
18.18230958214022
18.182478054205998
18.182652676264446
18.18283215962135
18.1830154982364
18.183201898481
18.183390697600615
18.183581277870484
18.18377297604968
18.183964990801986
18.184156289919052
18.184345520614343
18.18453093072849
18.18471030702623
18.18488095111986
18.18503970278745
18.185183031715635
18.18530720597576
18.185408535127962
18.185483670017558
18.18552992040466
18.185545539205396
18.286420574449224
18.28643213959408
18.28646650063207
18.286522688990157
18.286599198501772
18.286694125640704
18.28680533231539
18.286930601966827
18.28706777609695
18.28721485152099
18.28737004281869
18.287531804953602
18.287698824738676
18.287869990945875
18.288044345959797
18.288221025396275
18.288399192407176
18.288577967216693
18.28875635563692
18.28893317950248
18.289107012868907
18.2892761311467
18.289438477441205
18.289591661683833
18.289732996356598
18.28985958156316
18.28996844084726
18.290056702435674
18.29012181143166
18.29016174628341
18.29017520740011
18.391317452085946
18.391327716969013
18.391358256903544
18.391408330746543
18.391476775383964
18.391562100423474
18.391662600933024
18.39177646820652
18.39190189122053
18.392037132593874
18.392180582416696
18.392330783166035
18.3924864308956
18.39264635931045
18.392809507641616
18.392974877320675
18.393141483514192
18.393308302310093
18.393474217581463
18.393637970748024
18.393798117145472
18.393952995122515
18.39410071039527
18.39423914751506
18.394366008560894
18.39447888701804
18.394575375105617
18.394653198756636
18.39471036930989
18.39474533356383
18.394757101683542
18.49274262251067
18.492751841623132
18.49277929987431
18.492824415646567
18.492886268736076
18.492963665484023
18.493055218101613
18.493159424002176
18.4932747414439
18.493399648239166
18.493532686697996
18.493672487617317
18.493817776568346
18.493967367095436
18.494120140423394
18.49427501549725
18.494430914636645
18.49458672547368
18.49474126301731
18.494893234882934
18.49504121292461
18.495183616293964
18.495318707070545
18.495444607634912
18.495559337754536
18.495660876632627
18.49574724696371
18.49581661577654
18.495867404072868
18.49589839253916
18.495908810014054
18.587298966027145
18.5873073274341
18.587332252136985
18.587373272443358
18.587429643030454
18.587500386503034
18.587584350074238
18.587680262952333
18.58778679310336
18.587902592474947
18.588026333969193
18.588156733194758
18.58829255720532
18.58843262360574
18.588575788798256
18.588720928275233
18.58886691348435
18.58901258564954
18.58915672998427
18.58929805293549
18.58943516511179
18.589566573930888
18.58969068611347
18.589805827299905
18.58991027560956
18.590002312883307
18.59008029036647
18.590142704493218
18.590188277054757
18.590216030830994
18.590225351900195
18.67495523838545
18.674962888667874
18.67498570857718
18.675023312992856
18.675075084230546
18.67514020442239
18.675217696653213
18.675306466928376
18.675405347169985
18.675513130125488
18.675628599666084
18.675750549973785
18.675877795274705
18.676009172743726
18.67614353686551
18.67627974746421
18.67641665525567
18.676553084975914
18.676687819040055
18.676819583902017
18.67694704119392
18.677068786852352
18.677183357648893
18.677289251072033
18.677384954832846
18.677468988904366
18.67753995698509
18.677596603920378
18.67763787505314
18.67766297116448
18.677671393123568
18.755683761726605
18.75569081756267
18.755711875063035
18.755746609760326
18.75579449830352
18.75585484184007
18.755926796360146
18.756009403765923
18.756101624838127
18.756202366361084
18.75631050604646
18.7564249092887
18.756544439128206
18.756667961580078
18.75679434434525
18.756922450599845
18.75705113114684
18.75717921467292
18.757305498590153
18.757428742179133
18.757547663603937
18.757660943342337
18.75776723297411
18.757865174338335
18.75795342513442
18.758030693422754
18.758095778208613
18.758147613399444
18.758185312334604
18.758208208315267
18.758215887144672
18.829460240046124
18.829466796254284
18.829486370389134
18.829518683074397
18.829563281475224
18.829619556461815
18.829686765388708
18.82976405541899
18.829850489181155
18.82994506607233
18.83004674295765
18.83015444881132
18.830267094535387
18.830383579818804
18.83050279492285
18.830623618706873
18.83074491571013
18.83086553176681
18.830984290208526
18.83109998997035
18.831211406747645
18.831317299229138
18.8314164190445
18.83150752876974
18.831589424061598
18.831660962125664
18.831721094032453
18.831768898783796
18.831803617214028
18.831824682372165
18.831831743645807
18.896263556918782
18.896269692139683
18.89628801494255
18.896318279826367
18.89636008719682
18.896412896189965
18.896476042105835
18.896548754203288
18.89663017602479
18.89671938237165
18.896815396734638
18.89691720418312
18.89702376087886
18.897134001884943
18.897246845107464
18.897361192402634
18.89747593028694
18.897589929514417
18.89770204521485
18.89781111857429
18.897915980867616
18.898015461470717
18.898108398304757
18.898193654571863
18.898270137948497
18.89833682429894
18.898392783732874
18.898437207390003
18.898469433669113
18.898488971396986
18.89849551803497
18.95607595262483
18.95608173339822
18.95609900165091
18.956127537548472
18.956166982019838
18.956216846528097
18.956276526702162
18.95634531617035
18.956422422992976
18.956506983434103
18.956598076890565
18.95669473737204
18.956795962662515
18.956900722702773
18.957007965030954
18.957116618106184
18.957225594651707
18.95733379411883
18.95744010567067
18.957543412398543
18.95764259731834
18.957736552472976
18.95782418948768
18.957904455079476
18.957976347826783
18.958038938173782
18.958091389764103
18.95813298085325
18.958163124970724
18.958181388920934
18.95818750679087
19.008882033880344
19.00888751762331
19.008903901471392
19.008930985149238
19.008968440593957
19.009015819567068
19.009072564570065
19.00913801983433
19.00921144491255
19.009292026089213
19.00937888941127
19.00947111105792
19.009567726159172
19.009667737509766
19.009770122040013
19.009873835715666
19.009977818765197
19.010081000217216
19.01018230291075
19.010280649483217
19.010374969682896
19.01046421010623
19.01054734465251
19.010623388929318
19.01069141506448
19.010750568841985
19.010800087479335
19.010839317073753
19.010867729209334
19.010884935235623
19.010890697274103
19.05466951238808
19.054674749598558
19.054690398943915
19.054716275078412
19.054752073696104
19.05479737761214
19.054851665734617
19.05491432201361
19.054984646962698
19.055061867337454
19.055145147737562
19.055233600115763
19.05532629228963
19.055422256833236
19.055520498246704
19.055619998962573
19.055719725902527
19.055818636481696
19.055915685041114
19.056009830052197
19.056100042292655
19.056185314924665
19.056264673746515
19.056337190648136
19.056401996869305
19.05645829793627
19.05650538877351
19.056542668225326
19.056569652707086
19.056585987795515
19.056591457082227
19.093428006230152
19.09343304215527
19.0934480915094
19.093472980290567
19.09350742230304
19.093551024155282
19.093603292844534
19.093663643247464
19.093731408141572
19.09380584662396
19.093886154649468
19.09397147388337
19.094060899952915
19.094153491422375
19.094248277428324
19.094344264451387
19.094440443795595
19.094535798614174
19.094629311322496
19.094719971623178
19.094806785233544
19.09488878412222
19.094965036523377
19.095034659604597
19.09509683151419
19.095150804651453
19.095195918796566
19.095231613487588
19.095257439524772
19.095273068623577
19.09527830072556
19.125149538686152
19.12515441460415
19.12516898682701
19.125193089846917
19.125226451067288
19.12526869504087
19.125319350074612
19.125377854689514
19.125443566569412
19.1255157700761
19.125593686008976
19.12567647996829
19.125763270395996
19.125853137579224
19.12594513158934
19.12603827957303
19.126131593858887
19.12622407968007
19.126314743249406
19.126402600325555
19.12648668528181
19.126566061395188
19.126639830630488
19.126707145679596
19.126767221087924
19.1268193452858
19.126862892267777
19.12689733241795
19.126922242473036
19.126937313793707
19.126942358580553
19.149827914314955
19.149832668548655
19.14984687781204
19.14987038275697
19.149902920670993
19.14994412919557
19.14999355225591
19.1500506458109
19.150114786055557
19.150185276306537
19.150261356209775
19.150342209751315
19.15042697313683
19.15051474379527
19.15060458850985
19.150695551051122
19.150786660697435
19.150876940418524
19.150965415384473
19.151051121877348
19.151133116563397
19.151210486779743
19.15128236012138
19.1513479160032
19.151406396112844
19.151457115551782
19.151499473485224
19.151532962876352
19.151557179372613
19.15157182861669
19.151576731704367
19.167458413743685
19.16746308248423
19.167477036686467
19.16750012117911
19.16753207996394
19.16757255959754
19.167621114681832
19.1676772131529
19.1677402439937
19.167809523707106
19.167884305156015
19.16796378533739
19.168047113148013
19.168133398377552
19.16822171995445
19.168311133791974
19.16840068156673
19.16848939919046
19.16857632558767
19.168660511816277
19.168741030453905
19.168816985862097
19.168887523624022
19.168951841772557
19.169009200784632
19.169058934123527
19.169100458203445
19.169133281402555
19.169157012240618
19.169171366060617
19.169176169991147
19.17803795972259
19.178042577720895
19.178056380518193
19.178079215364654
19.178110830159135
19.17815087664211
19.178198915639022
19.178254422089374
19.178316792482732
19.178385351097766
19.178459358632793
19.17853801984309
19.178620491239265
19.178705890069875
19.17879330262778
19.178881792212174
19.17897040804725
19.179058193911196
19.17914419705942
19.179227477455957
19.179307117216513
19.179382230851274
19.17945197461023
19.17951555751384
19.179572251080806
19.179621399525796
19.179662429331948
19.179694857853146
19.17971830108958
19.179732480012987
19.17973722524922
19.18156466547988
19.1815692666549
19.18158301925158
19.181605771313563
19.181637272017465
19.18167717480502
19.18172504254658
19.181780352486545
19.181842503589593
19.181910822704282
19.181984573125206
19.182062962185725
19.182145148934072
19.18223025311172
19.182317363478695
19.182405545812106
19.182493851869324
19.182581328066846
19.18266702444931
19.182750003955658
19.182829351879107
19.182904186101567
19.182973666407822
19.18303700545068
19.183093478391545
19.18314243298557
19.18318329902653
19.18321559681585
19.183238944807734
19.183253065819134
19.183257791621834
