# vtk DataFile Version 2.0
Unstructured Grid Example
ASCII
DATASET UNSTRUCTURED_GRID

POINTS 961 float
0.400000004 0.01999999956 0
0.3866666556 0.01999999956 0
0.3733333348 0.01999999956 0
0.3600000144 0.01999999956 0
0.346666664 0.01999999956 0
0.3333333432 0.01999999956 0
0.3199999928 0.01999999956 0
0.3066666724 0.01999999956 0
0.293333322 0.01999999956 0
0.2800000012 0.01999999956 0
0.2666666804 0.01999999956 0
0.25333333 0.01999999956 0
0.2399999948 0.01999999956 0
0.226666674 0.01999999956 0
0.2133333384 0.01999999956 0
0.2000000028 0.01999999956 0
0.1866666676 0.01999999956 0
0.173333332 0.01999999956 0
0.1599999964 0.01999999956 0
0.1466666608 0.01999999956 0
0.1333333404 0.01999999956 0
0.1199999972 0.01999999956 0
0.1066666692 0.01999999956 0
0.0933333336 0.01999999956 0
0.0799999984 0.01999999956 0
0.06666667 0.01999999956 0
0.0533333348 0.01999999956 0
0.03999999912 0.01999999956 0
0.02666666732 0.01999999956 0
0.01333333364 0.01999999956 0
0.0 0.01999999956 0
0.400000004 0.00666666684 0
0.3866666556 0.00666666684 0
0.3733333348 0.00666666684 0
0.3600000144 0.00666666684 0
0.346666664 0.00666666684 0
0.3333333432 0.00666666684 0
0.3199999928 0.00666666684 0
0.3066666724 0.00666666684 0
0.293333322 0.00666666684 0
0.2800000012 0.00666666684 0
0.2666666804 0.00666666684 0
0.25333333 0.00666666684 0
0.2399999948 0.00666666684 0
0.226666674 0.00666666684 0
0.2133333384 0.00666666684 0
0.2000000028 0.00666666684 0
0.1866666676 0.00666666684 0
0.173333332 0.00666666684 0
0.1599999964 0.00666666684 0
0.1466666608 0.00666666684 0
0.1333333404 0.00666666684 0
0.1199999972 0.00666666684 0
0.1066666692 0.00666666684 0
0.0933333336 0.00666666684 0
0.0799999984 0.00666666684 0
0.06666667 0.00666666684 0
0.0533333348 0.00666666684 0
0.03999999912 0.00666666684 0
0.02666666732 0.00666666684 0
0.01333333364 0.00666666684 0
0.0 0.00666666684 0
0.400000004 -0.00666666684 0
0.3866666556 -0.00666666684 0
0.3733333348 -0.00666666684 0
0.3600000144 -0.00666666684 0
0.346666664 -0.00666666684 0
0.3333333432 -0.00666666684 0
0.3199999928 -0.00666666684 0
0.3066666724 -0.00666666684 0
0.293333322 -0.00666666684 0
0.2800000012 -0.00666666684 0
0.2666666804 -0.00666666684 0
0.25333333 -0.00666666684 0
0.2399999948 -0.00666666684 0
0.226666674 -0.00666666684 0
0.2133333384 -0.00666666684 0
0.2000000028 -0.00666666684 0
0.1866666676 -0.00666666684 0
0.173333332 -0.00666666684 0
0.1599999964 -0.00666666684 0
0.1466666608 -0.00666666684 0
0.1333333404 -0.00666666684 0
0.1199999972 -0.00666666684 0
0.1066666692 -0.00666666684 0
0.0933333336 -0.00666666684 0
0.0799999984 -0.00666666684 0
0.06666667 -0.00666666684 0
0.0533333348 -0.00666666684 0
0.03999999912 -0.00666666684 0
0.02666666732 -0.00666666684 0
0.01333333364 -0.00666666684 0
0.0 -0.00666666684 0
0.400000004 -0.01999999956 0
0.3866666556 -0.01999999956 0
0.3733333348 -0.01999999956 0
0.3600000144 -0.01999999956 0
0.346666664 -0.01999999956 0
0.3333333432 -0.01999999956 0
0.3199999928 -0.01999999956 0
0.3066666724 -0.01999999956 0
0.293333322 -0.01999999956 0
0.2800000012 -0.01999999956 0
0.2666666804 -0.01999999956 0
0.25333333 -0.01999999956 0
0.2399999948 -0.01999999956 0
0.226666674 -0.01999999956 0
0.2133333384 -0.01999999956 0
0.2000000028 -0.01999999956 0
0.1866666676 -0.01999999956 0
0.173333332 -0.01999999956 0
0.1599999964 -0.01999999956 0
0.1466666608 -0.01999999956 0
0.1333333404 -0.01999999956 0
0.1199999972 -0.01999999956 0
0.1066666692 -0.01999999956 0
0.0933333336 -0.01999999956 0
0.0799999984 -0.01999999956 0
0.06666667 -0.01999999956 0
0.0533333348 -0.01999999956 0
0.03999999912 -0.01999999956 0
0.02666666732 -0.01999999956 0
0.01333333364 -0.01999999956 0
0.0 -0.01999999956 0
0.400000004 -0.03333333508 0
0.3866666556 -0.03333333508 0
0.3733333348 -0.03333333508 0
0.3600000144 -0.03333333508 0
0.346666664 -0.03333333508 0
0.3333333432 -0.03333333508 0
0.3199999928 -0.03333333508 0
0.3066666724 -0.03333333508 0
0.293333322 -0.03333333508 0
0.2800000012 -0.03333333508 0
0.2666666804 -0.03333333508 0
0.25333333 -0.03333333508 0
0.2399999948 -0.03333333508 0
0.226666674 -0.03333333508 0
0.2133333384 -0.03333333508 0
0.2000000028 -0.03333333508 0
0.1866666676 -0.03333333508 0
0.173333332 -0.03333333508 0
0.1599999964 -0.03333333508 0
0.1466666608 -0.03333333508 0
0.1333333404 -0.03333333508 0
0.1199999972 -0.03333333508 0
0.1066666692 -0.03333333508 0
0.0933333336 -0.03333333508 0
0.0799999984 -0.03333333508 0
0.06666667 -0.03333333508 0
0.0533333348 -0.03333333508 0
0.03999999912 -0.03333333508 0
0.02666666732 -0.03333333508 0
0.01333333364 -0.03333333508 0
0.0 -0.03333333508 0
0.400000004 -0.0466666668 0
0.3866666556 -0.0466666668 0
0.3733333348 -0.0466666668 0
0.3600000144 -0.0466666668 0
0.346666664 -0.0466666668 0
0.3333333432 -0.0466666668 0
0.3199999928 -0.0466666668 0
0.3066666724 -0.0466666668 0
0.293333322 -0.0466666668 0
0.2800000012 -0.0466666668 0
0.2666666804 -0.0466666668 0
0.25333333 -0.0466666668 0
0.2399999948 -0.0466666668 0
0.226666674 -0.0466666668 0
0.2133333384 -0.0466666668 0
0.2000000028 -0.0466666668 0
0.1866666676 -0.0466666668 0
0.173333332 -0.0466666668 0
0.1599999964 -0.0466666668 0
0.1466666608 -0.0466666668 0
0.1333333404 -0.0466666668 0
0.1199999972 -0.0466666668 0
0.1066666692 -0.0466666668 0
0.0933333336 -0.0466666668 0
0.0799999984 -0.0466666668 0
0.06666667 -0.0466666668 0
0.0533333348 -0.0466666668 0
0.03999999912 -0.0466666668 0
0.02666666732 -0.0466666668 0
0.01333333364 -0.0466666668 0
0.0 -0.0466666668 0
0.400000004 -0.0599999988 0
0.3866666556 -0.0599999988 0
0.3733333348 -0.0599999988 0
0.3600000144 -0.0599999988 0
0.346666664 -0.0599999988 0
0.3333333432 -0.0599999988 0
0.3199999928 -0.0599999988 0
0.3066666724 -0.0599999988 0
0.293333322 -0.0599999988 0
0.2800000012 -0.0599999988 0
0.2666666804 -0.0599999988 0
0.25333333 -0.0599999988 0
0.2399999948 -0.0599999988 0
0.226666674 -0.0599999988 0
0.2133333384 -0.0599999988 0
0.2000000028 -0.0599999988 0
0.1866666676 -0.0599999988 0
0.173333332 -0.0599999988 0
0.1599999964 -0.0599999988 0
0.1466666608 -0.0599999988 0
0.1333333404 -0.0599999988 0
0.1199999972 -0.0599999988 0
0.1066666692 -0.0599999988 0
0.0933333336 -0.0599999988 0
0.0799999984 -0.0599999988 0
0.06666667 -0.0599999988 0
0.0533333348 -0.0599999988 0
0.03999999912 -0.0599999988 0
0.02666666732 -0.0599999988 0
0.01333333364 -0.0599999988 0
0.0 -0.0599999988 0
0.400000004 -0.0733333304 0
0.3866666556 -0.0733333304 0
0.3733333348 -0.0733333304 0
0.3600000144 -0.0733333304 0
0.346666664 -0.0733333304 0
0.3333333432 -0.0733333304 0
0.3199999928 -0.0733333304 0
0.3066666724 -0.0733333304 0
0.293333322 -0.0733333304 0
0.2800000012 -0.0733333304 0
0.2666666804 -0.0733333304 0
0.25333333 -0.0733333304 0
0.2399999948 -0.0733333304 0
0.226666674 -0.0733333304 0
0.2133333384 -0.0733333304 0
0.2000000028 -0.0733333304 0
0.1866666676 -0.0733333304 0
0.173333332 -0.0733333304 0
0.1599999964 -0.0733333304 0
0.1466666608 -0.0733333304 0
0.1333333404 -0.0733333304 0
0.1199999972 -0.0733333304 0
0.1066666692 -0.0733333304 0
0.0933333336 -0.0733333304 0
0.0799999984 -0.0733333304 0
0.06666667 -0.0733333304 0
0.0533333348 -0.0733333304 0
0.03999999912 -0.0733333304 0
0.02666666732 -0.0733333304 0
0.01333333364 -0.0733333304 0
0.0 -0.0733333304 0
0.400000004 -0.086666666 0
0.3866666556 -0.086666666 0
0.3733333348 -0.086666666 0
0.3600000144 -0.086666666 0
0.346666664 -0.086666666 0
0.3333333432 -0.086666666 0
0.3199999928 -0.086666666 0
0.3066666724 -0.086666666 0
0.293333322 -0.086666666 0
0.2800000012 -0.086666666 0
0.2666666804 -0.086666666 0
0.25333333 -0.086666666 0
0.2399999948 -0.086666666 0
0.226666674 -0.086666666 0
0.2133333384 -0.086666666 0
0.2000000028 -0.086666666 0
0.1866666676 -0.086666666 0
0.173333332 -0.086666666 0
0.1599999964 -0.086666666 0
0.1466666608 -0.086666666 0
0.1333333404 -0.086666666 0
0.1199999972 -0.086666666 0
0.1066666692 -0.086666666 0
0.0933333336 -0.086666666 0
0.0799999984 -0.086666666 0
0.06666667 -0.086666666 0
0.0533333348 -0.086666666 0
0.03999999912 -0.086666666 0
0.02666666732 -0.086666666 0
0.01333333364 -0.086666666 0
0.0 -0.086666666 0
0.400000004 -0.1000000016 0
0.3866666556 -0.1000000016 0
0.3733333348 -0.1000000016 0
0.3600000144 -0.1000000016 0
0.346666664 -0.1000000016 0
0.3333333432 -0.1000000016 0
0.3199999928 -0.1000000016 0
0.3066666724 -0.1000000016 0
0.293333322 -0.1000000016 0
0.2800000012 -0.1000000016 0
0.2666666804 -0.1000000016 0
0.25333333 -0.1000000016 0
0.2399999948 -0.1000000016 0
0.226666674 -0.1000000016 0
0.2133333384 -0.1000000016 0
0.2000000028 -0.1000000016 0
0.1866666676 -0.1000000016 0
0.173333332 -0.1000000016 0
0.1599999964 -0.1000000016 0
0.1466666608 -0.1000000016 0
0.1333333404 -0.1000000016 0
0.1199999972 -0.1000000016 0
0.1066666692 -0.1000000016 0
0.0933333336 -0.1000000016 0
0.0799999984 -0.1000000016 0
0.06666667 -0.1000000016 0
0.0533333348 -0.1000000016 0
0.03999999912 -0.1000000016 0
0.02666666732 -0.1000000016 0
0.01333333364 -0.1000000016 0
0.0 -0.1000000016 0
0.400000004 -0.1133333372 0
0.3866666556 -0.1133333372 0
0.3733333348 -0.1133333372 0
0.3600000144 -0.1133333372 0
0.346666664 -0.1133333372 0
0.3333333432 -0.1133333372 0
0.3199999928 -0.1133333372 0
0.3066666724 -0.1133333372 0
0.293333322 -0.1133333372 0
0.2800000012 -0.1133333372 0
0.2666666804 -0.1133333372 0
0.25333333 -0.1133333372 0
0.2399999948 -0.1133333372 0
0.226666674 -0.1133333372 0
0.2133333384 -0.1133333372 0
0.2000000028 -0.1133333372 0
0.1866666676 -0.1133333372 0
0.173333332 -0.1133333372 0
0.1599999964 -0.1133333372 0
0.1466666608 -0.1133333372 0
0.1333333404 -0.1133333372 0
0.1199999972 -0.1133333372 0
0.1066666692 -0.1133333372 0
0.0933333336 -0.1133333372 0
0.0799999984 -0.1133333372 0
0.06666667 -0.1133333372 0
0.0533333348 -0.1133333372 0
0.03999999912 -0.1133333372 0
0.02666666732 -0.1133333372 0
0.01333333364 -0.1133333372 0
0.0 -0.1133333372 0
0.400000004 -0.1266666652 0
0.3866666556 -0.1266666652 0
0.3733333348 -0.1266666652 0
[...]
POINT_DATA 961
SCALARS Temp float 1
LOOKUP_TABLE default
0.7128968387744227
0.7413701566988761
0.7618036279817807
0.776660771375451
0.787546729738833
0.7955621852501941
0.8014907549057751
0.805896456019079
0.8091898031169252
0.8116715849098026
0.8135648102648495
0.8150368596286701
0.8162156467746096
0.8172021969183263
0.8180800317404864
0.8189226143659529
0.8198001668615555
0.8207859372806346
0.821962783540829
0.823430705506626
0.825316017952574
0.8277834272261998
0.8310514253929627
0.8354141626965794
0.8412708117790635
0.8491672407436955
0.8598553850936709
0.8743801076445938
0.8942115035252597
0.9214831067862554
0.9595792397104584
0.752449129870428
0.780369227876332
0.8005832281843887
0.8153590451247069
0.8262076214587437
0.8342077304010904
0.8401316752601167
0.8445380887806074
0.8478346718669576
0.8503207492249617
0.852218578075654
0.8536951852860432
0.8548783595398841
0.8558691233845241
0.8567510638699709
0.8575977495391641
0.8584795224828042
0.859469750144302
0.860651391191843
0.8621245011674409
0.8640153635683364
0.8664884863562587
0.86976187490969
0.874128660267535
0.879986041645714
0.8878761277551827
0.8985436302745776
0.9130184798426286
0.9327396822728944
0.9597332347526826
0.9969336339944888
2.6042505812418577
2.6083985388139226
2.619959009965841
2.6306212137735603
2.6394379637136534
2.646452782847801
2.6519451498974127
2.656216773914018
2.659535273460044
2.6621227630737385
2.6641589428331804
2.665788296787825
2.6671278944633365
2.668274687521224
2.6693120033724314
2.670315351436686
2.671357823112694
2.672515387714099
2.6738723705291414
2.675527453426978
2.6776005330825035
2.680240663903487
2.683635222674706
2.6880199347045
2.693688196056168
2.700994912200443
2.7103411093438443
2.7220983808939216
2.7363239785604914
2.7517443569476043
2.757280437966025
4.432973938545679
4.4352375280466
4.440793231337785
4.447735253312041
4.454317273777282
4.46002365623165
4.464770615400702
4.468638019781027
4.471757960478025
4.474269648989962
4.4763022215245725
4.477969600888809
4.479370714400562
4.480592016333788
4.481710905860263
4.482799475256505
4.483928390695121
4.48517084849889
4.486606638622742
4.4883263261717286
4.490435461895369
4.493058528310545
4.4963417574037186
4.5004530609376445
4.50557487995377
4.511880910425142
4.519475780340997
4.528245973724818
4.537501144299195
4.544910218407303
4.54792891838337
6.256296278178853
6.257500902458485
6.260756489156436
6.26516442302686
6.269858466095153
6.274268945243891
6.278161389292293
6.281480434741418
6.284257990852233
6.286563478226336
6.28847872740661
6.290086038571539
6.291463306553522
6.292682899388911
6.293812478934668
6.294916839202317
6.296060269454584
6.297309137807124
6.298734498748664
6.300414494374137
6.302436176639424
6.304896088696491
6.3078982902246725
6.311547528361026
6.315933025632533
6.321094681765767
6.32695654186907
6.333203901211264
6.339075189547476
6.343413383663742
6.345018890276767
8.076359636430167
8.077093303175008
8.079123333375406
8.082029746158215
8.085326466674449
8.088625749230484
8.091690819107942
8.094414839805562
8.096773121225052
8.09878704974421
8.100501239750926
8.10197025825289
8.103251579327267
8.104402377420842
8.105478581036849
8.106535241781698
8.107627624983834
8.108812593117012
8.110149952041628
8.111703392660395
8.113540518094041
8.11573118059273
8.118342807996685
8.121430730739567
8.12502022489935
8.12907576486041
8.133452784114592
8.137833703125775
8.141699881872556
8.144401816004498
8.145378558755455
9.894229134733141
9.894696356713894
9.89601356011576
9.897960705670656
9.900262729713884
9.902668402284457
9.90499552427913
9.907137298375826
9.909047603807247
9.910721181249816
9.912177529249522
9.913449753006866
9.914577642418024
9.91560382023853
9.916571917569133
9.917526029434866
9.918510906908242
9.91957244549004
9.920758102411215
9.922116841135566
9.9236980899602
9.92554901704834
9.927709085294632
9.93020060365644
9.933013651583908
9.93608438433962
9.939268513941107
9.942321500888735
9.944907061133637
9.94665740188473
9.94727846448487
11.710374321122424
11.710675206574278
11.711532855730702
11.712827180712052
11.71439956748436
11.716093274008827
11.71778184001629
11.719380175378173
11.720842218286933
11.722152247567813
11.723315377814972
11.724349741361028
11.7252809663138
11.726138695695807
11.72695462332322
11.727761564010548
11.72859314578792
11.729483751634248
11.730468382140739
11.731582083470581
11.732858514701402
11.734327134076546
11.736008335719296
11.737905929028893
11.73999656126386
11.742216881398859
11.744451889130165
11.746531691372583
11.748246292650427
11.749383443849746
11.749782550728948
13.525028417305077
13.525214063004675
13.525747105008548
13.526562638674518
13.527571977810876
13.52868295361171
13.529816162279289
13.530913493484775
13.531939486570321
13.532878132179475
13.533728034023891
13.534497724225755
13.53520197198186
13.535859231560016
13.5364900441078
13.5371161382127
13.537759967928835
13.538444425630255
13.539192488476992
13.540026539108368
13.54096706612609
13.542030419997316
13.543225269274144
13.544547579539532
13.54597426733364
13.547456642259144
13.548916100932884
13.550245856041766
13.551322309808846
13.552026691114465
13.552272140340651
15.338305074950679
15.338402080586748
15.338682154407529
15.339115252493897
15.339659432197793
15.340269698424487
15.340905614177665
15.341535912966535
15.342139964364016
15.342706922600238
15.343233767269778
15.343723122974492
15.344181382287044
15.344617310436941
15.345041099389741
15.345463772221574
15.34589681485279
15.346351897217204
15.346840554480888
15.347373689471151
15.347960745551163
15.348608399584892
15.349318634237218
15.350086190548813
15.350895612212076
15.35171857890851
15.352512752720576
15.35322369072517
15.353790996636167
15.354158452334852
15.354285820806279
17.150258780039863
17.15027916783867
17.150339077918233
17.150434980835698
17.150561687927283
17.15071316835659
17.150883355893043
17.15106677358205
17.15125891514735
17.151456384299554
17.151656865869885
17.151858990305634
17.15206215441362
17.152266338587378
17.15247193364885
17.152679582985527
17.152890038889286
17.15310402142187
17.15332207047284
17.153544380344748
17.15377060823461
17.153999655666922
17.15422942611946
17.15445659258191
17.15467641762369
17.154882711085133
17.155068019546555
17.155224129472444
17.1553429035804
17.15541735374427
17.155442732092638
17.25135492086268
17.251371737059433
17.25142133651607
17.25150130623871
17.251608034526893
17.2517372104186
17.25188434442524
17.25204520512534
17.252216124824862
17.252394154077308
17.25257709858686
17.252763466091743
17.252952362985468
17.253143370832767
17.25333641495484
17.253531633755472
17.253729252545885
17.253929456002894
17.254132255694515
17.254337348119083
17.254543960959744
17.254750692352786
17.254955350556553
17.25515482491905
17.255345018081986
17.25552089377608
17.255676687610563
17.25580631101753
17.25590393700436
17.255964692414683
17.255985325393972
17.352346479929686
17.35236062289378
17.352402458425562
17.352470288029995
17.3525615323087
17.35267304541749
17.35280145725652
17.352943477545395
17.353096129786287
17.35325689108846
17.35342375289189
17.353595211759767
17.35377021418542
17.35394807633417
17.354128387716063
17.35431090753668
17.354495459692433
17.3546818241997
17.354869625343103
17.355058216021924
17.355246559688872
17.355433117010033
17.355615744834694
17.355791632631135
17.355957294729734
17.356108651609905
17.356241221790846
17.356350431584758
17.356432024319243
17.356482515225263
17.3564996122452
17.453238523782886
17.453250616249843
17.453286467339076
17.453344849359286
17.453423875319324
17.453521202108497
17.45363425937899
17.45376046196464
17.453897385194466
17.454042881137433
17.454195142791434
17.45435271610022
17.454514473852655
17.454679565446455
17.4548473482202
17.455017307949895
17.455188975070765
17.455361836425574
17.455535245048715
17.455708329767745
17.45587990779063
17.456048407744316
17.45621180931894
17.456367618903236
17.456512890957345
17.456644315071213
17.456758376801208
17.456851590281552
17.456920785348675
17.456963411927994
17.45697781251514
17.554034857600136
17.55404534404678
17.55407648910269
17.554127383057384
17.55419661326334
17.55428239843181
17.554382744334585
17.554495593112062
17.554618953462324
17.554750993256725
17.554890098383925
17.555034893433607
17.55518423240461
17.55533716868103
17.5554929073295
17.55565074585083
17.555810009683686
17.55596998317175
17.556129839537515
17.55628857270531
17.556444934696238
17.556597385416364
17.556744059168626
17.556882762509275
17.55701100748405
17.557126092237485
17.55722523046232
17.557305724597764
17.557365168835723
17.55740165638152
17.55741396012928
17.654738361321357
17.654747567607025
17.65477494901203
17.65481981516772
17.654881084429725
17.65495737444324
17.655047109768066
17.65514862764621
17.655260274482522
17.655380477985126
17.655507797678002
17.655640947737503
17.65577879697967
17.6559203521738
17.656064725844214
17.65621109332776
17.65635864474181
17.656506532820845
17.656653820428566
17.65679943085842
17.656942104517807
17.657080367804383
17.657212516846215
17.657336627129226
17.657450589524768
17.6575521800981
17.657639162159253
17.657709415011382
17.657761078844928
17.657792698218554
17.65780334443976
17.752124151500766
17.75213231972068
17.752156640694693
17.75219657828344
17.752251285833772
17.752319668351348
17.752400458022134
17.75249228977926
17.752593772958967
17.752703546843954
17.752820322587766
17.75294290510752
17.753070197905487
17.753201195068872
17.753334960359222
17.753470597028606
17.753607213261866
17.753743884095314
17.753879613440752
17.75401329915436
17.754143704294087
17.75426943931828
17.75438895658146
17.754500565554405
17.754602467247864
17.754692812604443
17.754769782156608
17.754831681961544
17.754877048088844
17.754904747506707
17.754914062582678
17.842943917731017
17.84295123092777
17.842973025154865
17.843008874648607
17.843058102310206
17.843119823074908
17.843192997669853
17.84327648709025
17.84336910608993
17.843469665744472
17.84357700767013
17.843690023718562
17.843807663096573
17.84392892996951
17.844052870681768
17.84417855334922
17.844305043989028
17.844431379772715
17.8445565426384
17.84467943581859
17.844798865868384
17.844913533994433
17.845022037075726
17.845122884967008
17.8452145314802
17.84529542234656
17.84536405718895
17.84541906136095
17.8454592621091
17.84548376055701
17.8454919910768
17.92716581470367
17.927172416168297
17.92719210294597
17.92722452946878
17.927269142705438
17.927325212867576
17.92739187222114
17.927468154738897
17.927553036337795
17.927645467507908
17.927744401074772
17.927848809385342
17.927957692332754
17.928070078544323
17.928185018411636
17.928301571049545
17.92841878869671
17.928535698836654
17.92865128680925
17.928764481021084
17.92887414278921
17.928979063821302
17.929077971053133
17.929169544141985
17.929252442504563
17.929325344392886
17.92938699517159
17.929436261491766
17.929472187436954
17.9294940466198
17.92950138458329
18.004760262396523
18.004766266751577
18.00478418257595
18.00481372337304
18.004854428069365
18.004905683071176
18.004966750693917
18.005036798332117
18.005114929034242
18.005200206630633
18.005291678291318
18.005388389335685
18.005489391432295
18.005593746057986
18.00570052164889
18.005808786033143
18.00591759710469
18.006025991726336
18.006132975174438
18.006237512798872
18.006338525446473
18.0064348910108
18.00652545138386
18.00660902919524
18.00668445105419
18.006750579341713
18.006806350002872
18.006850813761215
18.006883178007683
18.006902845040585
18.006909442825926
18.07569990046055
18.075705401348817
18.07572182192503
18.07574891974123
18.075786302679695
18.075833445029225
18.075889708632594
18.075954364603177
18.076026616851497
18.076105621598373
18.076190505836884
18.076280380074476
18.076374346353166
18.076471503127237
18.07657094531596
18.076671760753474
18.076773025539328
18.07687379803036
18.076973113375743
18.07706997988525
18.077163378374003
18.077252266347067
18.077335586016257
18.077412279880612
18.077481310597804
18.077541686942947
18.077592493626895
18.07763292298494
18.07766230663568
18.077680143958833
18.077686124761385
18.13995957051796
18.13996464602816
18.139979801861912
18.140004828770135
18.140039386869447
18.140083017542715
18.140135159436966
18.140195164855626
18.140262318138767
18.14033585099809
18.140414957805024
18.14049880661723
18.140586546869592
18.140677315118825
18.140770237122126
18.140864427200714
18.140958987023705
18.141053003354727
18.141145546315308
18.141235669134858
18.141322410207184
18.14140479893326
18.141481864172356
18.141552648556384
18.14161622550004
18.141671720557373
18.141718335199215
18.14175537148374
18.141782256326405
18.141798563034556
18.14180402827994
18.197516700928432
18.19752141748472
18.197535505097278
18.197558779754402
18.197590941463986
18.197631583215053
18.197680203310103
18.197736217940314
18.197798975804986
18.19786777035068
18.197941852626148
18.19802044092657
18.198102728114144
18.198187887873893
18.19827507819235
18.1983634428101
18.19845211248923
18.198540205488246
18.19862682851329
18.198711078858626
18.19879204830552
18.198868829967942
18.198940526812738
18.19900626475546
18.19906520731009
18.199116573351787
18.199159656330217
18.199193843758646
18.19921863611834
18.199233663415708
18.19923869811219
18.24835059637226
18.24835501157465
18.248368201718172
18.248390002086072
18.24842014331195
18.248458258261532
18.248503891743987
18.248556510344805
18.2486155142965
18.24868024743334
18.248750008196303
18.248824058185733
18.248901629125072
18.248981929400472
18.249064148495084
18.249147459920817
18.249231024256776
18.249313991577143
18.249395504310165
18.24947470104105
18.24955072163728
18.249622714665772
18.24968984578398
18.2497513097399
18.249806343113395
18.249854239296358
18.249894364266776
18.249926172248973
18.249949220706885
18.249963183313564
18.24996785998971
18.292443408362896
18.29244757308991
18.292460016846057
18.292480589688502
18.292509045788396
18.292545048836864
18.29258817987892
18.29263794517642
18.292693786073663
18.29275508727427
18.292821186451377
18.29289138195201
18.292964939442598
18.293041098590148
18.293119078138627
18.2931980798743
18.293277292907966
18.29335589747939
18.293433069149117
18.29350798373701
18.293579823244645
18.293647783567458
18.29371108266325
18.293768971609726
18.29382074582924
18.29386575793316
18.29390343091539
18.293933270986834
18.29395487971533
18.293967964402064
18.2939723460447
18.32977924733155
18.32978320733571
18.32979504075652
18.329814608908645
18.32984168395736
18.329875953279227
18.329917025954792
18.329964439222405
18.330017666888875
18.330076126384395
18.33013918733177
18.330206178602744
18.330276394693847
18.330349102463515
18.33042354663169
18.330498954456093
18.330574540873194
18.33064951325688
18.330723076524688
18.330794438837174
18.330862818023455
18.330927449418517
18.330987593780858
18.33104254756829
18.331091652979644
18.331134309178832
18.331169983567847
18.331198222547314
18.331218661582138
18.331231033708068
18.331235176006533
18.36034492314708
18.360348720285497
18.360360067982697
18.360378836003914
18.360404810059784
18.36043769543355
18.360477122525218
18.360522652308887
18.360573783701454
18.36062995973998
18.360690575387867
18.36075498410655
18.36082250401342
18.360892424626545
18.360964012636856
18.361036517063614
18.361109174975965
18.36118121689922
18.36125187253521
18.36132037695924
18.361385977352207
18.361447940866544
18.36150556230444
18.36155817376954
18.36160515380797
18.36164593742662
18.361680025958943
18.361706996323754
18.36172650960067
18.36173831820199
18.361742271290506
18.384129587517446
18.384133260730934
18.384144238739086
18.384162397447795
18.384187532432822
18.38421936206467
18.384257532398742
18.384301621945703
18.3843511483144
18.384405573776977
18.38446431253314
18.38452673693228
18.38459218346428
18.38465995948949
18.384729349180443
18.384799618990915
18.384870023758015
18.384939812534803
18.38500823471038
18.385074546521995
18.385138017965986
18.385197940644893
18.38525363524218
18.38530446069996
18.38534982270066
18.38538918281776
18.38542206738228
18.38544807568476
18.38546688750878
18.385478269374534
18.38548207922437
18.401124655278426
18.40112824139374
18.401138959522775
18.4011566897419
18.401181234338583
18.40121232061092
18.401249605331838
18.40129267907291
18.4013410723706
18.40139426088986
18.40145167232709
18.40151269239692
18.401576670705374
18.401642927458866
18.401710759506035
18.401779446000692
18.401848254739992
18.40191644826208
18.401983290212485
18.402048052044957
18.402110020030573
18.402168503071426
18.402222840021945
18.402272408534945
18.40231663309394
18.402354993580172
18.402387033473243
18.402412367354064
18.402430687752314
18.402441770781348
18.402445480344852
18.411324142787226
18.411327677196798
18.411338241029554
18.411355716782204
18.411379910641887
18.41141055510307
18.41144731319196
18.411489782538677
18.411537501273926
18.411589952964665
18.411646573310815
18.411706755996118
18.411769858491372
18.411835208747174
18.41190211128762
18.41196985297833
18.412037709492157
18.412104951551015
18.41217085142478
18.412234689731715
18.412295762495056
18.41235338892917
18.412406918666186
18.412455740405886
18.412499289686693
18.412537057116566
18.412568596192525
18.412593530405296
18.412611559697343
18.41262246575298
18.412626115934447
18.414724365884723
18.414727883149897
18.414738395818556
18.414755787180948
18.414779864703483
18.41481036258684
18.41484694591292
18.414889214635863
18.414936709391306
18.414988916358485
18.41504527388972
18.415105178316715
18.415167989730875
18.41523303866986
18.41529963222734
18.41536705985407
18.41543459986403
18.415501525721716
18.415567112582853
18.415630644125727
18.415691419621762
18.41574876171137
18.4158020235986
18.415850597635995
18.41589392301002
18.41593149386213
18.415962866984213
18.415987668794003
18.416005601666726
18.416016449113688
18.416020079630837
