# vtk DataFile Version 2.0
Unstructured Grid Example
ASCII
DATASET UNSTRUCTURED_GRID

POINTS 961 float
0.400000004 0.01999999956 0
0.3866666556 0.01999999956 0
0.3733333348 0.01999999956 0
0.3600000144 0.01999999956 0
0.346666664 0.01999999956 0
0.3333333432 0.01999999956 0
0.3199999928 0.01999999956 0
0.3066666724 0.01999999956 0
0.293333322 0.01999999956 0
0.2800000012 0.01999999956 0
0.2666666804 0.01999999956 0
0.25333333 0.01999999956 0
0.2399999948 0.01999999956 0
0.226666674 0.01999999956 0
0.2133333384 0.01999999956 0
0.2000000028 0.01999999956 0
0.1866666676 0.01999999956 0
0.173333332 0.01999999956 0
0.1599999964 0.01999999956 0
0.1466666608 0.01999999956 0
0.1333333404 0.01999999956 0
0.1199999972 0.01999999956 0
0.1066666692 0.01999999956 0
0.0933333336 0.01999999956 0
0.0799999984 0.01999999956 0
0.06666667 0.01999999956 0
0.0533333348 0.01999999956 0
0.03999999912 0.01999999956 0
0.02666666732 0.01999999956 0
0.01333333364 0.01999999956 0
0.0 0.01999999956 0
0.400000004 0.00666666684 0
0.3866666556 0.00666666684 0
0.3733333348 0.00666666684 0
0.3600000144 0.00666666684 0
0.346666664 0.00666666684 0
0.3333333432 0.00666666684 0
0.3199999928 0.00666666684 0
0.3066666724 0.00666666684 0
0.293333322 0.00666666684 0
0.2800000012 0.00666666684 0
0.2666666804 0.00666666684 0
0.25333333 0.00666666684 0
0.2399999948 0.00666666684 0
0.226666674 0.00666666684 0
0.2133333384 0.00666666684 0
0.2000000028 0.00666666684 0
0.1866666676 0.00666666684 0
0.173333332 0.00666666684 0
0.1599999964 0.00666666684 0
0.1466666608 0.00666666684 0
0.1333333404 0.00666666684 0
0.1199999972 0.00666666684 0
0.1066666692 0.00666666684 0
0.0933333336 0.00666666684 0
0.0799999984 0.00666666684 0
0.06666667 0.00666666684 0
0.0533333348 0.00666666684 0
0.03999999912 0.00666666684 0
0.02666666732 0.00666666684 0
0.01333333364 0.00666666684 0
0.0 0.00666666684 0
0.400000004 -0.00666666684 0
0.3866666556 -0.00666666684 0
0.3733333348 -0.00666666684 0
0.3600000144 -0.00666666684 0
0.346666664 -0.00666666684 0
0.3333333432 -0.00666666684 0
0.3199999928 -0.00666666684 0
0.3066666724 -0.00666666684 0
0.293333322 -0.00666666684 0
0.2800000012 -0.00666666684 0
0.2666666804 -0.00666666684 0
0.25333333 -0.00666666684 0
0.2399999948 -0.00666666684 0
0.226666674 -0.00666666684 0
0.2133333384 -0.00666666684 0
0.2000000028 -0.00666666684 0
0.1866666676 -0.00666666684 0
0.173333332 -0.00666666684 0
0.1599999964 -0.00666666684 0
0.1466666608 -0.00666666684 0
0.1333333404 -0.00666666684 0
0.1199999972 -0.00666666684 0
0.1066666692 -0.00666666684 0
0.0933333336 -0.00666666684 0
0.0799999984 -0.00666666684 0
0.06666667 -0.00666666684 0
0.0533333348 -0.00666666684 0
0.03999999912 -0.00666666684 0
0.02666666732 -0.00666666684 0
0.01333333364 -0.00666666684 0
0.0 -0.00666666684 0
0.400000004 -0.01999999956 0
0.3866666556 -0.01999999956 0
0.3733333348 -0.01999999956 0
0.3600000144 -0.01999999956 0
0.346666664 -0.01999999956 0
0.3333333432 -0.01999999956 0
0.3199999928 -0.01999999956 0
0.3066666724 -0.01999999956 0
0.293333322 -0.01999999956 0
0.2800000012 -0.01999999956 0
0.2666666804 -0.01999999956 0
0.25333333 -0.01999999956 0
0.2399999948 -0.01999999956 0
0.226666674 -0.01999999956 0
0.2133333384 -0.01999999956 0
0.2000000028 -0.01999999956 0
0.1866666676 -0.01999999956 0
0.173333332 -0.01999999956 0
0.1599999964 -0.01999999956 0
0.1466666608 -0.01999999956 0
0.1333333404 -0.01999999956 0
0.1199999972 -0.01999999956 0
0.1066666692 -0.01999999956 0
0.0933333336 -0.01999999956 0
0.0799999984 -0.01999999956 0
0.06666667 -0.01999999956 0
0.0533333348 -0.01999999956 0
0.03999999912 -0.01999999956 0
0.02666666732 -0.01999999956 0
0.01333333364 -0.01999999956 0
0.0 -0.01999999956 0
0.400000004 -0.03333333508 0
0.3866666556 -0.03333333508 0
0.3733333348 -0.03333333508 0
0.3600000144 -0.03333333508 0
0.346666664 -0.03333333508 0
0.3333333432 -0.03333333508 0
0.3199999928 -0.03333333508 0
0.3066666724 -0.03333333508 0
0.293333322 -0.03333333508 0
0.2800000012 -0.03333333508 0
0.2666666804 -0.03333333508 0
0.25333333 -0.03333333508 0
0.2399999948 -0.03333333508 0
0.226666674 -0.03333333508 0
0.2133333384 -0.03333333508 0
0.2000000028 -0.03333333508 0
0.1866666676 -0.03333333508 0
0.173333332 -0.03333333508 0
0.1599999964 -0.03333333508 0
0.1466666608 -0.03333333508 0
0.1333333404 -0.03333333508 0
0.1199999972 -0.03333333508 0
0.1066666692 -0.03333333508 0
0.0933333336 -0.03333333508 0
0.0799999984 -0.03333333508 0
0.06666667 -0.03333333508 0
0.0533333348 -0.03333333508 0
0.03999999912 -0.03333333508 0
0.02666666732 -0.03333333508 0
0.01333333364 -0.03333333508 0
0.0 -0.03333333508 0
0.400000004 -0.0466666668 0
0.3866666556 -0.0466666668 0
0.3733333348 -0.0466666668 0
0.3600000144 -0.0466666668 0
0.346666664 -0.0466666668 0
0.3333333432 -0.0466666668 0
0.3199999928 -0.0466666668 0
0.3066666724 -0.0466666668 0
0.293333322 -0.0466666668 0
0.2800000012 -0.0466666668 0
0.2666666804 -0.0466666668 0
0.25333333 -0.0466666668 0
0.2399999948 -0.0466666668 0
0.226666674 -0.0466666668 0
0.2133333384 -0.0466666668 0
0.2000000028 -0.0466666668 0
0.1866666676 -0.0466666668 0
0.173333332 -0.0466666668 0
0.1599999964 -0.0466666668 0
0.1466666608 -0.0466666668 0
0.1333333404 -0.0466666668 0
0.1199999972 -0.0466666668 0
0.1066666692 -0.0466666668 0
0.0933333336 -0.0466666668 0
0.0799999984 -0.0466666668 0
0.06666667 -0.0466666668 0
0.0533333348 -0.0466666668 0
0.03999999912 -0.0466666668 0
0.02666666732 -0.0466666668 0
0.01333333364 -0.0466666668 0
0.0 -0.0466666668 0
0.400000004 -0.0599999988 0
0.3866666556 -0.0599999988 0
0.3733333348 -0.0599999988 0
0.3600000144 -0.0599999988 0
0.346666664 -0.0599999988 0
0.3333333432 -0.0599999988 0
0.3199999928 -0.0599999988 0
0.3066666724 -0.0599999988 0
0.293333322 -0.0599999988 0
0.2800000012 -0.0599999988 0
0.2666666804 -0.0599999988 0
0.25333333 -0.0599999988 0
0.2399999948 -0.0599999988 0
0.226666674 -0.0599999988 0
0.2133333384 -0.0599999988 0
0.2000000028 -0.0599999988 0
0.1866666676 -0.0599999988 0
0.173333332 -0.0599999988 0
0.1599999964 -0.0599999988 0
0.1466666608 -0.0599999988 0
0.1333333404 -0.0599999988 0
0.1199999972 -0.0599999988 0
0.1066666692 -0.0599999988 0
0.0933333336 -0.0599999988 0
0.0799999984 -0.0599999988 0
0.06666667 -0.0599999988 0
0.0533333348 -0.0599999988 0
0.03999999912 -0.0599999988 0
0.02666666732 -0.0599999988 0
0.01333333364 -0.0599999988 0
0.0 -0.0599999988 0
0.400000004 -0.0733333304 0
0.3866666556 -0.0733333304 0
0.3733333348 -0.0733333304 0
0.3600000144 -0.0733333304 0
0.346666664 -0.0733333304 0
0.3333333432 -0.0733333304 0
0.3199999928 -0.0733333304 0
0.3066666724 -0.0733333304 0
0.293333322 -0.0733333304 0
0.2800000012 -0.0733333304 0
0.2666666804 -0.0733333304 0
0.25333333 -0.0733333304 0
0.2399999948 -0.0733333304 0
0.226666674 -0.0733333304 0
0.2133333384 -0.0733333304 0
0.2000000028 -0.0733333304 0
0.1866666676 -0.0733333304 0
0.173333332 -0.0733333304 0
0.1599999964 -0.0733333304 0
0.1466666608 -0.0733333304 0
0.1333333404 -0.0733333304 0
0.1199999972 -0.0733333304 0
0.1066666692 -0.0733333304 0
0.0933333336 -0.0733333304 0
0.0799999984 -0.0733333304 0
0.06666667 -0.0733333304 0
0.0533333348 -0.0733333304 0
0.03999999912 -0.0733333304 0
0.02666666732 -0.0733333304 0
0.01333333364 -0.0733333304 0
0.0 -0.0733333304 0
0.400000004 -0.086666666 0
0.3866666556 -0.086666666 0
0.3733333348 -0.086666666 0
0.3600000144 -0.086666666 0
0.346666664 -0.086666666 0
0.3333333432 -0.086666666 0
0.3199999928 -0.086666666 0
0.3066666724 -0.086666666 0
0.293333322 -0.086666666 0
0.2800000012 -0.086666666 0
0.2666666804 -0.086666666 0
0.25333333 -0.086666666 0
0.2399999948 -0.086666666 0
0.226666674 -0.086666666 0
0.2133333384 -0.086666666 0
0.2000000028 -0.086666666 0
0.1866666676 -0.086666666 0
0.173333332 -0.086666666 0
0.1599999964 -0.086666666 0
0.1466666608 -0.086666666 0
0.1333333404 -0.086666666 0
0.1199999972 -0.086666666 0
0.1066666692 -0.086666666 0
0.0933333336 -0.086666666 0
0.0799999984 -0.086666666 0
0.06666667 -0.086666666 0
0.0533333348 -0.086666666 0
0.03999999912 -0.086666666 0
0.02666666732 -0.086666666 0
0.01333333364 -0.086666666 0
0.0 -0.086666666 0
0.400000004 -0.1000000016 0
0.3866666556 -0.1000000016 0
0.3733333348 -0.1000000016 0
0.3600000144 -0.1000000016 0
0.346666664 -0.1000000016 0
0.3333333432 -0.1000000016 0
0.3199999928 -0.1000000016 0
0.3066666724 -0.1000000016 0
0.293333322 -0.1000000016 0
0.2800000012 -0.1000000016 0
0.2666666804 -0.1000000016 0
0.25333333 -0.1000000016 0
0.2399999948 -0.1000000016 0
0.226666674 -0.1000000016 0
0.2133333384 -0.1000000016 0
0.2000000028 -0.1000000016 0
0.1866666676 -0.1000000016 0
0.173333332 -0.1000000016 0
0.1599999964 -0.1000000016 0
0.1466666608 -0.1000000016 0
0.1333333404 -0.1000000016 0
0.1199999972 -0.1000000016 0
0.1066666692 -0.1000000016 0
0.0933333336 -0.1000000016 0
0.0799999984 -0.1000000016 0
0.06666667 -0.1000000016 0
0.0533333348 -0.1000000016 0
0.03999999912 -0.1000000016 0
0.02666666732 -0.1000000016 0
0.01333333364 -0.1000000016 0
0.0 -0.1000000016 0
0.400000004 -0.1133333372 0
0.3866666556 -0.1133333372 0
0.3733333348 -0.1133333372 0
0.3600000144 -0.1133333372 0
0.346666664 -0.1133333372 0
0.3333333432 -0.1133333372 0
0.3199999928 -0.1133333372 0
0.3066666724 -0.1133333372 0
0.293333322 -0.1133333372 0
0.2800000012 -0.1133333372 0
0.2666666804 -0.1133333372 0
0.25333333 -0.1133333372 0
0.2399999948 -0.1133333372 0
0.226666674 -0.1133333372 0
0.2133333384 -0.1133333372 0
0.2000000028 -0.1133333372 0
0.1866666676 -0.1133333372 0
0.173333332 -0.1133333372 0
0.1599999964 -0.1133333372 0
0.1466666608 -0.1133333372 0
0.1333333404 -0.1133333372 0
0.1199999972 -0.1133333372 0
0.1066666692 -0.1133333372 0
0.0933333336 -0.1133333372 0
0.0799999984 -0.1133333372 0
0.06666667 -0.1133333372 0
0.0533333348 -0.1133333372 0
0.03999999912 -0.1133333372 0
0.02666666732 -0.1133333372 0
0.01333333364 -0.1133333372 0
0.0 -0.1133333372 0
0.400000004 -0.1266666652 0
0.3866666556 -0.1266666652 0
0.3733333348 -0.1266666652 0
[...]
POINT_DATA 961
SCALARS Temp float 1
LOOKUP_TABLE default
0.7090250378886148
0.7373437135525415
0.7576662049539317
0.7724426514293998
0.783269478332216
0.7912413900892569
0.7971377479533832
0.8015195061661304
0.8047949498795309
0.8072632343720437
0.8091461575201562
0.8106101909141415
0.811782553827904
0.8127637230190727
0.8136367667778489
0.8144747494685394
0.8153475119967791
0.8163279048127304
0.8174983360261476
0.8189582625756928
0.8208333133662601
0.8232873003343092
0.8265375289765972
0.830876552006972
0.8367013740819413
0.8445548985138415
0.8551849767287778
0.8696307963981672
0.8893544678233796
0.9164779367230419
0.9543671432772022
0.7483625217216203
0.7761309820371461
0.7962351942559642
0.8109307556885833
0.8217204031966303
0.8296770512373892
0.8355688088268486
0.8399512748884886
0.8432299362405706
0.8457024921165609
0.8475899928384866
0.8490585583474559
0.8502352835178861
0.8512206424648108
0.8520977685043479
0.8529398308582054
0.85381678981602
0.8548016145816003
0.8559768134799484
0.8574418988365223
0.8593224684601187
0.861782136989792
0.8650377258890736
0.8693807742124938
0.8752063239181543
0.8830535393535878
0.8936630873644265
0.9080593045571148
0.9276733807888318
0.9545203090130875
0.9915186471965652
2.5901069035766064
2.5942323291774945
2.60573000231601
2.616334278766973
2.6251031165311502
2.6320798026345735
2.6375422983322325
2.641790674537607
2.645091096883819
2.647664474173899
2.6496895311595483
2.651309967871701
2.652642218748059
2.6537827096553572
2.6548143162268607
2.6558121385784292
2.656848871940729
2.6580000738221607
2.6593496123059213
2.660995634055375
2.6630573852799744
2.6656831115118345
2.669059172465164
2.6734200137185575
2.6790574383081833
2.6863244245283067
2.695619820846282
2.7073132027516094
2.7214615113868432
2.7367981191716675
2.742304125929005
4.408898541751088
4.411149830734759
4.416675340298008
4.423579626111859
4.4301258527898995
4.435801184829848
4.440522292662322
4.444368611790775
4.44747151681255
4.449969464149916
4.451990889746741
4.453649098853135
4.455042482741956
4.456257027439768
4.457369713091044
4.458452241793684
4.4595748972970775
4.460810479753322
4.462238347113714
4.463948573920206
4.466046138916399
4.468654849723061
4.471920145224791
4.47600902624361
4.481102943872087
4.487374651536852
4.494928209730525
4.503650719753858
4.512855585632844
4.52022439573802
4.523226692323725
6.2223185141447885
6.223516586464863
6.226754463276297
6.231138410114494
6.235806894151255
6.240193336945229
6.244064541667608
6.247365446597919
6.2501277889514215
6.2524206137070655
6.254325308519244
6.2559237282452695
6.257293346423216
6.258506139892
6.259629404930916
6.260727585589192
6.261864623925805
6.263106529557434
6.264523972994812
6.266194673812771
6.268205212987501
6.270651611054321
6.2736373641484455
6.277266652010547
6.281628213963582
6.286761734289048
6.292591671774961
6.29880503200757
6.304644382095487
6.308958983943052
6.310555760393486
8.032497230596316
8.033226900339232
8.03524586822566
8.03813643474865
8.041415165655755
8.044696422074804
8.047744716417371
8.050453793838804
8.05279909996701
8.054801906859204
8.056506588605517
8.057967418017741
8.059241559321736
8.060385878846484
8.061456003824146
8.062506689406286
8.06359290333036
8.06477120180134
8.066101068393268
8.067645850563087
8.069472786652632
8.071651351807017
8.074248609798374
8.077319592545223
8.080889440680078
8.084922823201172
8.089275960274746
8.093632998558085
8.097478116069842
8.10016533704886
8.101136762028938
9.840494034925989
9.840958704032436
9.842268707704925
9.844205202235432
9.846494618692237
9.848887092725256
9.851201416234412
9.853331373677165
9.85523109679346
9.856895357093109
9.858343549713599
9.859608602742234
9.860730092823374
9.86175041420827
9.862712964117438
9.863661601244228
9.864640836798639
9.865696320201002
9.866875254082782
9.868226339056635
9.869798737940595
9.871639365558721
9.873787473154662
9.876265251013853
9.879062834754137
9.882116728458552
9.88528342963784
9.888319728530151
9.890891168843172
9.892631956364461
9.893249630181213
11.646775932194096
11.647075165075451
11.647928101161659
11.64921530538758
11.650779026168642
11.652463374133681
11.65414257758511
11.655732010630796
11.65718586405612
11.658488504796436
11.659645022661241
11.660673454732798
11.661599293359735
11.66245202416112
11.663263172533592
11.664065378867045
11.66489209239043
11.665777513179783
11.666756455525945
11.667863778960122
11.669132963338214
11.670593310335027
11.672265106540268
11.674152143665985
11.676231198552522
11.678439266716458
11.680661974613194
11.682730353727953
11.684435550609024
11.685566470020937
11.685963390629183
13.45157488468434
13.451759500453823
13.45228958268193
13.453100579940692
13.454104288877037
13.455209042890798
13.456335871493888
13.457426982432425
13.458447110491758
13.459380336470645
13.46022527518527
13.460990416217504
13.461690452587671
13.462343742563705
13.462970720103746
13.463593000255592
13.464232919641834
13.464913250823606
13.465656850637693
13.466485984530738
13.467421034053714
13.468478264906315
13.469666302364722
13.470981137455237
13.472399815314297
13.473873912878076
13.47532525619126
13.476647640044183
13.477718139637918
13.47841863016071
13.47866272450257
15.255003934095809
15.255100387798064
15.255378865525586
15.25580948735265
15.256350539785135
15.25695727398431
15.257589474954568
15.25821604887761
15.258816480674913
15.259379987194365
15.25990356851279
15.26038983937778
15.260845162320035
15.261278259862504
15.261699273683693
15.262119172174165
15.26254938411156
15.26300152128741
15.263487061400136
15.264016853129968
15.264600293451302
15.265244027641398
15.265950032004005
15.266713080228737
15.267517803679553
15.268336039174812
15.269125681628314
15.26983258622322
15.27039668661375
15.270762071403228
15.270888722955473
17.05711727784969
17.05713752621038
17.05719702509717
17.057292265175946
17.057418087517707
17.057568496194282
17.057737460648145
17.057919536944443
17.058110247060696
17.058306217403548
17.05850515004688
17.05870568791436
17.058907236444313
17.059109781746628
17.05931371832388
17.059519692005196
17.05972845699811
17.05994073545531
17.060157070270574
17.060377660497263
17.060602170806973
17.060829514045892
17.061057610122894
17.061283154770713
17.061501440542976
17.061706314687395
17.06189036754385
17.062045432920613
17.06216341988981
17.062237379839182
17.062262591627213
17.15766441667699
17.1576811124687
17.15773035564065
17.15780974725603
17.15791569680424
17.158043918918004
17.15818995125292
17.15834958868419
17.158519187265156
17.158695817872513
17.15887730285601
17.159062163160783
17.15924951545727
17.159438949264086
17.159630396185158
17.15982399988419
17.16001999052664
17.160218557864532
17.16041971941518
17.160623179205373
17.160828174797125
17.161033317364282
17.161236432177528
17.161434430211987
17.16162324067082
17.161797858472468
17.161952553852917
17.162081274080407
17.162178225995305
17.162238564486948
17.162259056316664
17.258107600751618
17.258121637149472
17.258163156531275
17.258230470600793
17.258321015579735
17.25843166494175
17.258559069716195
17.258699960885426
17.258851382034514
17.259010828379918
17.259176307109016
17.259346328172
17.259519849334467
17.259696196290037
17.2598749667929
17.260055927508798
17.260238909510853
17.26042370023078
17.260609932146668
17.260796967690112
17.260983781760814
17.261168848935952
17.261350042932623
17.261524573326703
17.261688977788157
17.261839202876914
17.261970794848025
17.26207920768607
17.262160210073116
17.26221033778133
17.262227312177874
17.358451870449002
17.358463866483874
17.358499430929296
17.358557343768585
17.358635729924384
17.358732261319275
17.358844384486257
17.358969531806615
17.359105295827188
17.359249544836082
17.359400486646933
17.35955668049824
17.35971701103852
17.359880638295472
17.360046929315562
17.3602153790274
17.360385526846475
17.3605568688329
17.36072876789522
17.36090036381314
17.361070486232013
17.36123757805093
17.36139963533675
17.361554183027536
17.361698296137668
17.361828686292203
17.36194186164505
17.362034358189412
17.36210302528983
17.362145328390298
17.36215961999736
17.458701012268612
17.458711409669963
17.458742289648622
17.458792748485436
17.45886138294275
17.458946423813938
17.459045890749447
17.45915774072551
17.459279997480166
17.459410843586472
17.45954867891843
17.45969214116777
17.459840096544255
17.459991609844536
17.460145896940244
17.460302265783685
17.460460052186555
17.460618551089127
17.46077694684101
17.46093424532168
17.461089211604957
17.461240319948402
17.461385720426666
17.46152323673237
17.461650399177945
17.461764524813738
17.461862846127442
17.461942683262517
17.462001645887558
17.4620378393048
17.462050044125306
17.55885789315614
17.55886701566569
17.558894147402142
17.558938602851978
17.558999308074085
17.559074890755365
17.55916378721962
17.559264347590744
17.559374931700987
17.55949398079817
17.55962006772231
17.55975191956071
17.559888417573944
17.560028580526065
17.56017153258944
17.560316460564128
17.560462566027596
17.560609013377864
17.56075487755344
17.56089909452721
17.561040418151688
17.561177389129078
17.56130831877614
17.561431298528557
17.561544235716273
17.561644922936505
17.56173113950109
17.56180077944434
17.561851995594157
17.561883342245878
17.56189389685825
17.65571517022972
17.655723258497634
17.65574734100332
17.655786885684243
17.655841052412402
17.655908754810483
17.655988735329856
17.656079640375484
17.656180091521687
17.65628874071023
17.656404311882095
17.65652562269078
17.65665158923308
17.6567812180143
17.65691358507559
17.65704780589891
17.65718300095349
17.65731825774055
17.657452592942143
17.657584917599042
17.65771400844609
17.65783849012815
17.6579568296587
17.658067351482753
17.658168271653913
17.658257755849792
17.658333998545565
17.658395318384184
17.658440262058726
17.658467704621266
17.65847693350367
17.746042195368442
17.7460494315455
17.7460709959118
17.746106466237002
17.746155171119202
17.74621623309886
17.74628862208974
17.746371209526163
17.746462821509652
17.746562281095095
17.746668442255924
17.74678020940833
17.746896544424686
17.747016464168205
17.747139027703483
17.747263315921124
17.74738840770963
17.747513353269035
17.747637147781145
17.74775870798017
17.747876854196633
17.747990301650244
17.748097661394834
17.74819745744965
17.748288157550025
17.748368220786826
17.748436159187797
17.74849060912088
17.748530407003127
17.74855466086301
17.748562809367492
17.82980728688912
17.829813813595287
17.82983327716273
17.82986533517385
17.82990943970721
17.82996486785664
17.830030760295333
17.83010616067856
17.830190055606774
17.83028140702966
17.83037917978675
17.830482358633887
17.830589956153755
17.830701013852206
17.830814595143465
17.83092977229777
17.831045610835485
17.831161151656808
17.831275393658757
17.831387278937505
17.83149568260191
17.831599410180615
17.83169720235983
17.83178775230033
17.83186973246319
17.831941833408763
17.832002811754897
17.832051544009126
17.832087082368222
17.832108706499866
17.83211596569065
17.90698101080118
17.906986942148144
17.907004639919094
17.90703382049573
17.90707402749578
17.907124653688527
17.90718496923202
17.907254150648793
17.907331311176783
17.907415525711272
17.907505853166597
17.907601351136613
17.90770108397669
17.907804126155472
17.907909559335522
17.90801646476179
17.908123913891348
17.908230957264934
17.90833661391652
17.90843986298706
17.908539639083777
17.90863483373169
17.908724302211255
17.90880688012204
17.908881406430833
17.9089467550237
17.90900187223417
17.909045817784488
17.909077806403946
17.909097245827898
17.909103767367217
17.977536136048492
17.977541565286288
17.977557771814723
17.97758451586995
17.977621409725437
17.97766793365895
17.977723456946013
17.977787259421607
17.97785855481912
17.977936510126302
17.978020263870846
17.978108938722208
17.97820164939246
17.978297507395972
17.978395621012922
17.9784950916704
17.97859500922013
17.97869444586809
17.978792450643716
17.978888045693044
17.97898022553529
17.97906796113147
17.97915020777905
17.97922592052017
17.979294073835135
17.979353687390592
17.97940385563503
17.979443779264265
17.979472796663934
17.979490412198196
17.979496318728156
18.04144761771814
18.041452622631017
18.041467567528358
18.041492245705975
18.041526321456043
18.041569341880255
18.04162075276058
18.04167991482435
18.04174612196314
18.041818616431655
18.04189660397435
18.04197926471896
18.042065760747533
18.042155241715584
18.04224684682795
18.04233970411496
18.042432929121883
18.04252562257021
18.042616868531834
18.042705734082855
18.042791271254345
18.042872522747423
18.042948530257366
18.043018348620045
18.04308106265751
18.043135808346936
18.04318179640608
18.043218336777336
18.04324486272004
18.04326095219264
18.04326634470769
18.098692980709416
18.098697627483865
18.098711506571938
18.098734436406897
18.098766121016883
18.098806158914478
18.09885405532077
18.09890923463317
18.0989710549021
18.09903881994969
18.099111792074307
18.09918920156733
18.099270253913815
18.09935413591755
18.099440019066986
18.099527060886544
18.099614406093664
18.09970118697079
18.09978652421041
18.099869528943614
18.09994930652079
18.100024963221717
18.100095614646037
18.100160398645656
18.100218489820605
18.10026911711187
18.10031158284592
18.100345282064048
18.100369721277
18.10038453489588
18.100389498065724
18.149251614281905
18.14925596033129
18.149268943812046
18.149290402380583
18.149320070578934
18.1493575866554
18.149402502180806
18.149454291788004
18.149512364913456
18.14957607564244
18.149644733572046
18.149717612240465
18.14979395597096
18.14987298627693
18.149953906176137
18.15003590301111
18.150118151365145
18.150199815374354
18.150280051467817
18.150358012047274
18.150432850485334
18.150503728401606
18.150569823923085
18.150630343524337
18.15068453462385
18.15073170040753
18.150771215451318
18.150802541241113
18.15082524103659
18.15083899273298
18.15084359881849
18.19310573850769
18.193109834563103
18.193122073082954
18.193142306446074
18.19317029265178
18.193205700672248
18.1932481182008
18.193297059431337
18.193351974804465
18.193412259182978
18.193477261325917
18.193546291472828
18.19361862786956
18.193693523312277
18.19377021009833
18.19384790387284
18.193925807779635
18.194003116140443
18.194079018518522
18.194152704525905
18.19422336961241
18.19429022263315
18.194352493885958
18.19440944601226
18.194460385083726
18.194504673300067
18.19454174204378
18.194571104588668
18.194592368124773
18.194605244040513
18.1946095558154
18.230239522388395
18.23024341408512
18.2302550433495
18.230274273781212
18.23030088131638
18.2303345585401
18.230374921099873
18.23042151408311
18.230473820314998
18.230531267317822
18.230593235748344
18.230659066336223
18.230728066140347
18.230799515146717
18.230872671638753
18.230946776749345
18.231021059464098
18.231094741247876
18.231167041016175
18.231237180697384
18.231304391520514
18.23136792170563
18.23142704425019
18.231481067051075
18.231529342813154
18.231571280134485
18.231606354649827
18.231634119675544
18.23165421617086
18.23166638115952
18.231670454141987
18.260639821563945
18.260643550665012
18.260654695007148
18.260673126614783
18.260698634929128
18.260730930390732
18.26076964990914
18.26081436224859
18.260864575288863
18.260919742110964
18.260979268674532
18.261042520273197
18.26110882757301
18.261177493216653
18.261247797463408
18.261319003216645
18.261390361602906
18.26146111724127
18.261530513824052
18.261597800172506
18.261662236828272
18.261723103770727
18.261779707964116
18.26183139285763
18.261877547397113
18.26191761590997
18.261951107848258
18.26197760693929
18.26199677966403
18.26200838235087
18.26201226653616
18.28429582376956
18.284299429139143
18.284310204366516
18.2843280275991
18.28435269811559
18.284383939408684
18.284421404003815
18.284464678161225
18.284513288414225
18.2845667070454
18.284624359224217
18.28468562911382
18.284749865742437
18.284816389591835
18.28488449840496
18.284953472524144
18.285022580847738
18.285091086522215
18.28515825291949
18.285223350004877
18.285285661105323
18.28534449060706
18.285399171299378
18.285449073402248
18.285493612921506
18.285532260670127
18.285564551016737
18.2855900899845
18.285608562692783
18.285619739527277
18.28562348077195
18.301198971541297
18.30120248994228
18.301213005675326
18.301230401046915
18.30125448202959
18.301284981020906
18.301321561238208
18.30136382097628
18.30141129967105
18.30146348297601
18.301519809539844
18.30157967687864
18.30164244712956
18.301707453617826
18.301774006763065
18.301841399609714
18.301908914017613
18.301975826616932
18.3020414150296
18.302104964424334
18.30216577438162
18.302223166557354
18.302276491873517
18.302325139215085
18.30236854333779
18.30240619330822
18.302437640589662
18.302462506445313
18.302480488697192
18.3024913672907
18.302495008450016
18.311343299599674
18.31134676636929
18.31135712802699
18.311374269293218
18.311398000030156
18.31142805781899
18.31146411211599
18.31150576825968
18.311552573266127
18.311604020678487
18.311659557139066
18.31171858812598
18.311780483636984
18.311844584739745
18.31191020952942
18.311976658763054
18.312043222176595
18.312109184582685
18.312173832223507
18.31223645942428
18.312296375505042
18.31235291241652
18.312405431836158
18.312453333669477
18.3124960636977
18.312533121683128
18.312564069075584
18.312588536019362
18.312606227724515
18.312616929688332
18.312620511581553
18.31472513505877
18.314728584708227
18.314738895273848
18.314755952267543
18.31477956682755
18.31480947823718
18.314845358003744
18.31488681378503
18.314933395097484
18.314984598092572
18.315039872061757
18.31509862512884
18.315160229910788
18.315224030061753
18.31528934624642
18.315355481807185
18.31542172912117
18.31548737574312
18.315551710799646
18.315614031673285
18.315673650928122
18.31572990393518
18.315782155936486
18.315829810481745
18.315872316990596
18.315909178748726
18.315939960490823
18.315964295278814
18.315981890747494
18.31599253421495
18.31599609648173
