# vtk DataFile Version 2.0
Unstructured Grid Example
ASCII
DATASET UNSTRUCTURED_GRID

POINTS 961 float
0.400000004 0.01999999956 0
0.3866666556 0.01999999956 0
0.3733333348 0.01999999956 0
0.3600000144 0.01999999956 0
0.346666664 0.01999999956 0
0.3333333432 0.01999999956 0
0.3199999928 0.01999999956 0
0.3066666724 0.01999999956 0
0.293333322 0.01999999956 0
0.2800000012 0.01999999956 0
0.2666666804 0.01999999956 0
0.25333333 0.01999999956 0
0.2399999948 0.01999999956 0
0.226666674 0.01999999956 0
0.2133333384 0.01999999956 0
0.2000000028 0.01999999956 0
0.1866666676 0.01999999956 0
0.173333332 0.01999999956 0
0.1599999964 0.01999999956 0
0.1466666608 0.01999999956 0
0.1333333404 0.01999999956 0
0.1199999972 0.01999999956 0
0.1066666692 0.01999999956 0
0.0933333336 0.01999999956 0
0.0799999984 0.01999999956 0
0.06666667 0.01999999956 0
0.0533333348 0.01999999956 0
0.03999999912 0.01999999956 0
0.02666666732 0.01999999956 0
0.01333333364 0.01999999956 0
0.0 0.01999999956 0
0.400000004 0.00666666684 0
0.3866666556 0.00666666684 0
0.3733333348 0.00666666684 0
0.3600000144 0.00666666684 0
0.346666664 0.00666666684 0
0.3333333432 0.00666666684 0
0.3199999928 0.00666666684 0
0.3066666724 0.00666666684 0
0.293333322 0.00666666684 0
0.2800000012 0.00666666684 0
0.2666666804 0.00666666684 0
0.25333333 0.00666666684 0
0.2399999948 0.00666666684 0
0.226666674 0.00666666684 0
0.2133333384 0.00666666684 0
0.2000000028 0.00666666684 0
0.1866666676 0.00666666684 0
0.173333332 0.00666666684 0
0.1599999964 0.00666666684 0
0.1466666608 0.00666666684 0
0.1333333404 0.00666666684 0
0.1199999972 0.00666666684 0
0.1066666692 0.00666666684 0
0.0933333336 0.00666666684 0
0.0799999984 0.00666666684 0
0.06666667 0.00666666684 0
0.0533333348 0.00666666684 0
0.03999999912 0.00666666684 0
0.02666666732 0.00666666684 0
0.01333333364 0.00666666684 0
0.0 0.00666666684 0
0.400000004 -0.00666666684 0
0.3866666556 -0.00666666684 0
0.3733333348 -0.00666666684 0
0.3600000144 -0.00666666684 0
0.346666664 -0.00666666684 0
0.3333333432 -0.00666666684 0
0.3199999928 -0.00666666684 0
0.3066666724 -0.00666666684 0
0.293333322 -0.00666666684 0
0.2800000012 -0.00666666684 0
0.2666666804 -0.00666666684 0
0.25333333 -0.00666666684 0
0.2399999948 -0.00666666684 0
0.226666674 -0.00666666684 0
0.2133333384 -0.00666666684 0
0.2000000028 -0.00666666684 0
0.1866666676 -0.00666666684 0
0.173333332 -0.00666666684 0
0.1599999964 -0.00666666684 0
0.1466666608 -0.00666666684 0
0.1333333404 -0.00666666684 0
0.1199999972 -0.00666666684 0
0.1066666692 -0.00666666684 0
0.0933333336 -0.00666666684 0
0.0799999984 -0.00666666684 0
0.06666667 -0.00666666684 0
0.0533333348 -0.00666666684 0
0.03999999912 -0.00666666684 0
0.02666666732 -0.00666666684 0
0.01333333364 -0.00666666684 0
0.0 -0.00666666684 0
0.400000004 -0.01999999956 0
0.3866666556 -0.01999999956 0
0.3733333348 -0.01999999956 0
0.3600000144 -0.01999999956 0
0.346666664 -0.01999999956 0
0.3333333432 -0.01999999956 0
0.3199999928 -0.01999999956 0
0.3066666724 -0.01999999956 0
0.293333322 -0.01999999956 0
0.2800000012 -0.01999999956 0
0.2666666804 -0.01999999956 0
0.25333333 -0.01999999956 0
0.2399999948 -0.01999999956 0
0.226666674 -0.01999999956 0
0.2133333384 -0.01999999956 0
0.2000000028 -0.01999999956 0
0.1866666676 -0.01999999956 0
0.173333332 -0.01999999956 0
0.1599999964 -0.01999999956 0
0.1466666608 -0.01999999956 0
0.1333333404 -0.01999999956 0
0.1199999972 -0.01999999956 0
0.1066666692 -0.01999999956 0
0.0933333336 -0.01999999956 0
0.0799999984 -0.01999999956 0
0.06666667 -0.01999999956 0
0.0533333348 -0.01999999956 0
0.03999999912 -0.01999999956 0
0.02666666732 -0.01999999956 0
0.01333333364 -0.01999999956 0
0.0 -0.01999999956 0
0.400000004 -0.03333333508 0
0.3866666556 -0.03333333508 0
0.3733333348 -0.03333333508 0
0.3600000144 -0.03333333508 0
0.346666664 -0.03333333508 0
0.3333333432 -0.03333333508 0
0.3199999928 -0.03333333508 0
0.3066666724 -0.03333333508 0
0.293333322 -0.03333333508 0
0.2800000012 -0.03333333508 0
0.2666666804 -0.03333333508 0
0.25333333 -0.03333333508 0
0.2399999948 -0.03333333508 0
0.226666674 -0.03333333508 0
0.2133333384 -0.03333333508 0
0.2000000028 -0.03333333508 0
0.1866666676 -0.03333333508 0
0.173333332 -0.03333333508 0
0.1599999964 -0.03333333508 0
0.1466666608 -0.03333333508 0
0.1333333404 -0.03333333508 0
0.1199999972 -0.03333333508 0
0.1066666692 -0.03333333508 0
0.0933333336 -0.03333333508 0
0.0799999984 -0.03333333508 0
0.06666667 -0.03333333508 0
0.0533333348 -0.03333333508 0
0.03999999912 -0.03333333508 0
0.02666666732 -0.03333333508 0
0.01333333364 -0.03333333508 0
0.0 -0.03333333508 0
0.400000004 -0.0466666668 0
0.3866666556 -0.0466666668 0
0.3733333348 -0.0466666668 0
0.3600000144 -0.0466666668 0
0.346666664 -0.0466666668 0
0.3333333432 -0.0466666668 0
0.3199999928 -0.0466666668 0
0.3066666724 -0.0466666668 0
0.293333322 -0.0466666668 0
0.2800000012 -0.0466666668 0
0.2666666804 -0.0466666668 0
0.25333333 -0.0466666668 0
0.2399999948 -0.0466666668 0
0.226666674 -0.0466666668 0
0.2133333384 -0.0466666668 0
0.2000000028 -0.0466666668 0
0.1866666676 -0.0466666668 0
0.173333332 -0.0466666668 0
0.1599999964 -0.0466666668 0
0.1466666608 -0.0466666668 0
0.1333333404 -0.0466666668 0
0.1199999972 -0.0466666668 0
0.1066666692 -0.0466666668 0
0.0933333336 -0.0466666668 0
0.0799999984 -0.0466666668 0
0.06666667 -0.0466666668 0
0.0533333348 -0.0466666668 0
0.03999999912 -0.0466666668 0
0.02666666732 -0.0466666668 0
0.01333333364 -0.0466666668 0
0.0 -0.0466666668 0
0.400000004 -0.0599999988 0
0.3866666556 -0.0599999988 0
0.3733333348 -0.0599999988 0
0.3600000144 -0.0599999988 0
0.346666664 -0.0599999988 0
0.3333333432 -0.0599999988 0
0.3199999928 -0.0599999988 0
0.3066666724 -0.0599999988 0
0.293333322 -0.0599999988 0
0.2800000012 -0.0599999988 0
0.2666666804 -0.0599999988 0
0.25333333 -0.0599999988 0
0.2399999948 -0.0599999988 0
0.226666674 -0.0599999988 0
0.2133333384 -0.0599999988 0
0.2000000028 -0.0599999988 0
0.1866666676 -0.0599999988 0
0.173333332 -0.0599999988 0
0.1599999964 -0.0599999988 0
0.1466666608 -0.0599999988 0
0.1333333404 -0.0599999988 0
0.1199999972 -0.0599999988 0
0.1066666692 -0.0599999988 0
0.0933333336 -0.0599999988 0
0.0799999984 -0.0599999988 0
0.06666667 -0.0599999988 0
0.0533333348 -0.0599999988 0
0.03999999912 -0.0599999988 0
0.02666666732 -0.0599999988 0
0.01333333364 -0.0599999988 0
0.0 -0.0599999988 0
0.400000004 -0.0733333304 0
0.3866666556 -0.0733333304 0
0.3733333348 -0.0733333304 0
0.3600000144 -0.0733333304 0
0.346666664 -0.0733333304 0
0.3333333432 -0.0733333304 0
0.3199999928 -0.0733333304 0
0.3066666724 -0.0733333304 0
0.293333322 -0.0733333304 0
0.2800000012 -0.0733333304 0
0.2666666804 -0.0733333304 0
0.25333333 -0.0733333304 0
0.2399999948 -0.0733333304 0
0.226666674 -0.0733333304 0
0.2133333384 -0.0733333304 0
0.2000000028 -0.0733333304 0
0.1866666676 -0.0733333304 0
0.173333332 -0.0733333304 0
0.1599999964 -0.0733333304 0
0.1466666608 -0.0733333304 0
0.1333333404 -0.0733333304 0
0.1199999972 -0.0733333304 0
0.1066666692 -0.0733333304 0
0.0933333336 -0.0733333304 0
0.0799999984 -0.0733333304 0
0.06666667 -0.0733333304 0
0.0533333348 -0.0733333304 0
0.03999999912 -0.0733333304 0
0.02666666732 -0.0733333304 0
0.01333333364 -0.0733333304 0
0.0 -0.0733333304 0
0.400000004 -0.086666666 0
0.3866666556 -0.086666666 0
0.3733333348 -0.086666666 0
0.3600000144 -0.086666666 0
0.346666664 -0.086666666 0
0.3333333432 -0.086666666 0
0.3199999928 -0.086666666 0
0.3066666724 -0.086666666 0
0.293333322 -0.086666666 0
0.2800000012 -0.086666666 0
0.2666666804 -0.086666666 0
0.25333333 -0.086666666 0
0.2399999948 -0.086666666 0
0.226666674 -0.086666666 0
0.2133333384 -0.086666666 0
0.2000000028 -0.086666666 0
0.1866666676 -0.086666666 0
0.173333332 -0.086666666 0
0.1599999964 -0.086666666 0
0.1466666608 -0.086666666 0
0.1333333404 -0.086666666 0
0.1199999972 -0.086666666 0
0.1066666692 -0.086666666 0
0.0933333336 -0.086666666 0
0.0799999984 -0.086666666 0
0.06666667 -0.086666666 0
0.0533333348 -0.086666666 0
0.03999999912 -0.086666666 0
0.02666666732 -0.086666666 0
0.01333333364 -0.086666666 0
0.0 -0.086666666 0
0.400000004 -0.1000000016 0
0.3866666556 -0.1000000016 0
0.3733333348 -0.1000000016 0
0.3600000144 -0.1000000016 0
0.346666664 -0.1000000016 0
0.3333333432 -0.1000000016 0
0.3199999928 -0.1000000016 0
0.3066666724 -0.1000000016 0
0.293333322 -0.1000000016 0
0.2800000012 -0.1000000016 0
0.2666666804 -0.1000000016 0
0.25333333 -0.1000000016 0
0.2399999948 -0.1000000016 0
0.226666674 -0.1000000016 0
0.2133333384 -0.1000000016 0
0.2000000028 -0.1000000016 0
0.1866666676 -0.1000000016 0
0.173333332 -0.1000000016 0
0.1599999964 -0.1000000016 0
0.1466666608 -0.1000000016 0
0.1333333404 -0.1000000016 0
0.1199999972 -0.1000000016 0
0.1066666692 -0.1000000016 0
0.0933333336 -0.1000000016 0
0.0799999984 -0.1000000016 0
0.06666667 -0.1000000016 0
0.0533333348 -0.1000000016 0
0.03999999912 -0.1000000016 0
0.02666666732 -0.1000000016 0
0.01333333364 -0.1000000016 0
0.0 -0.1000000016 0
0.400000004 -0.1133333372 0
0.3866666556 -0.1133333372 0
0.3733333348 -0.1133333372 0
0.3600000144 -0.1133333372 0
0.346666664 -0.1133333372 0
0.3333333432 -0.1133333372 0
0.3199999928 -0.1133333372 0
0.3066666724 -0.1133333372 0
0.293333322 -0.1133333372 0
0.2800000012 -0.1133333372 0
0.2666666804 -0.1133333372 0
0.25333333 -0.1133333372 0
0.2399999948 -0.1133333372 0
0.226666674 -0.1133333372 0
0.2133333384 -0.1133333372 0
0.2000000028 -0.1133333372 0
0.1866666676 -0.1133333372 0
0.173333332 -0.1133333372 0
0.1599999964 -0.1133333372 0
0.1466666608 -0.1133333372 0
0.1333333404 -0.1133333372 0
0.1199999972 -0.1133333372 0
0.1066666692 -0.1133333372 0
0.0933333336 -0.1133333372 0
0.0799999984 -0.1133333372 0
0.06666667 -0.1133333372 0
0.0533333348 -0.1133333372 0
0.03999999912 -0.1133333372 0
0.02666666732 -0.1133333372 0
0.01333333364 -0.1133333372 0
0.0 -0.1133333372 0
0.400000004 -0.1266666652 0
0.3866666556 -0.1266666652 0
0.3733333348 -0.1266666652 0
[...]
POINT_DATA 961
SCALARS Temp float 1
LOOKUP_TABLE default
0.7207045809064528
0.7494897466582723
0.7701470205610184
0.7851669013018265
0.7961721107433413
0.8042753853116218
0.8102689237858741
0.8147229202076719
0.8180523846511363
0.820561399627173
0.8224754159257086
0.8239636466412339
0.8251554059271742
0.8261528248743562
0.8270403393271089
0.827892216409753
0.8287794467019305
0.8297760799332181
0.8309658809827043
0.8324499444700951
0.8343559682007262
0.8368504621154512
0.8401543110581575
0.8445648868169823
0.8504857339807939
0.8584686994570832
0.8692739547198104
0.8839578071051772
0.9040064539591333
0.9315767983385597
0.9700902319788713
0.7606900304399251
0.7889159172506586
0.8093513169742274
0.8242889813181835
0.8352564003772626
0.8433441616499397
0.8493330263035329
0.8537877448198496
0.8571204828141148
0.8596338427347612
0.8615525154674837
0.8630453566268057
0.8642415538770026
0.8652432355804807
0.8661349036349542
0.8669909317047912
0.8678824316750896
0.868883573940109
0.8700782252002468
0.8715675363304275
0.8734791734848606
0.875979446015607
0.879288746720156
0.8837034169911968
0.8896250063506823
0.8976015611123483
0.9083859497784006
0.9230193839293594
0.9429566310367286
0.970245879392126
1.0078537675518253
2.63277152579376
2.6369649238920796
2.648652041177997
2.6594310753010895
2.6683444650461583
2.6754362090548396
2.680988845726106
2.685307387127396
2.6886623813375174
2.6912783739065826
2.6933370312659424
2.6949844180088465
2.6963388838535343
2.697498440238429
2.6985473250773095
2.6995618726335495
2.700615972659293
2.7017864243613285
2.70315847448651
2.7048318836775733
2.7069278598402784
2.709597088093491
2.7130289958126173
2.7174618886110986
2.7231923746867834
2.730579245516985
2.740027918607556
2.7519140563362496
2.766295536201337
2.7818848613867635
2.7874815953568413
4.481522127467254
4.483810526942314
4.489427133284375
4.496445278065553
4.50309951393774
4.508868555492324
4.513667697930073
4.517577682285063
4.52073204387124
4.523271516113919
4.525326646562358
4.527012602531354
4.528429391428739
4.529664410864508
4.530795904064393
4.531896749166596
4.533038382560267
4.534294798512541
4.535746657198526
4.53748551205973
4.53961806645427
4.542270163039193
4.545589632363438
4.549746222438837
4.55492436993454
4.561299670901642
4.568977897102124
4.5778442870892
4.587200930924285
4.594691219504702
4.597743004791006
6.324812486213043
6.32603033005915
6.329321651129038
6.333777991454872
6.338523624348104
6.342982635456004
6.346917983046909
6.350273694222224
6.3530820242424415
6.355413150141629
6.357349794456599
6.358975154189206
6.360367972477039
6.361601404915929
6.362743849218132
6.363860803734433
6.36501725649283
6.366280297155734
6.367721753157776
6.369420617296148
6.37146488999804
6.373952167075553
6.37698764346857
6.3806772094166595
6.385111060841249
6.390329530970074
6.396255829773804
6.402571802608551
6.408507534935629
6.412893328089723
6.414516447660017
8.16480807113426
8.165549807219838
8.167602172557553
8.170540585405655
8.173873645425223
8.177209357635508
8.180308350823006
8.183062614468795
8.185447183563305
8.187483673677214
8.189217182315133
8.190702868186198
8.19199882854886
8.193162857463081
8.194251489183703
8.19532037131963
8.196425367476117
8.197623955905796
8.198976590570544
8.200547653184856
8.20240548075921
8.2046206843647
8.207261424458583
8.210383631995985
8.21401285483422
8.218113173645786
8.222538434364784
8.226967575361163
8.23087627281015
8.23360790581913
8.234595381896304
10.002585642129372
10.00305802337305
10.004389779041343
10.006358458545035
10.008685983345842
10.011118368756648
10.013471416151745
10.015637153710202
10.017568949980577
10.019261481804195
10.020734454448062
10.022021328329943
10.023162321323788
10.024200514828046
10.02518000935724
10.02614537424607
10.027141841974258
10.028215801990317
10.02941522267794
10.030789595342922
10.032388881495057
10.034260758121722
10.036445112982953
10.038964492527308
10.04180886125355
10.044913669458687
10.048133043758304
10.051219761896206
10.053833852953536
10.055603493019653
10.056231400922398
11.838619863127205
11.838924094519266
11.839791288007628
11.841100038812302
11.842689992962182
11.84440268792498
11.846110273584161
11.847726722101457
11.849205460524832
11.850530588014594
11.851707266972795
11.852753819473625
11.853696144913373
11.854564201136471
11.855390018909382
11.856206762047588
11.857048416379211
11.857949730953287
11.85894607931247
11.86007288129889
11.861364154811767
11.862849671346975
11.864550039531784
11.866469102244373
11.868583243416602
11.8708284113696
11.873088340271888
11.875191271174508
11.876924904475715
11.878074663314317
11.87847819262526
13.673146483713094
13.67333422207069
13.673873279689435
13.674698039122166
13.675718839634918
13.676842498494699
13.677988736598161
13.679098800393307
13.680136833022218
13.681086640996304
13.681946803082408
13.682725934438782
13.683438954958223
13.684104509443863
13.684743352039723
13.685377437064549
13.686029452117182
13.686722527918539
13.687479881039732
13.688324127287476
13.68927596808118
13.69035192190498
13.691560741819275
13.692898339529526
13.694341369897343
13.695840601310755
13.69731656255634
13.698661290891057
13.699749830159947
13.700462104982087
13.700710302318944
15.506280374171723
15.506378510999099
15.506661857787385
15.507100039314185
15.507650649836568
15.508268196297328
15.508911792288414
15.50954982103644
15.510161417111505
15.510735605780916
15.511269322383402
15.511765208209141
15.512229713030134
15.512671684654716
15.513101412792592
15.513530027050521
15.513969124793217
15.51443048941411
15.514925768218875
15.515465969559274
15.516060626797662
15.516716477107197
15.517435512784889
15.518212406065567
15.519031521136236
15.519864218377998
15.520667688242906
15.521386884883524
15.52196074525553
15.522332431687046
15.522461264145894
17.338076591395968
17.338097281155814
17.338158082529656
17.338255424844103
17.338384058348634
17.338537880253945
17.338710750420322
17.338897122939102
17.339092431825
17.33929323194693
17.33949716998896
17.339702847595486
17.339909640294206
17.340117512893716
17.340326844595946
17.34053826957022
17.340752531902986
17.34097034309601
17.341192232683717
17.34141838118484
17.3416484266588
17.341881243919897
17.342114699656445
17.342345417607977
17.34256859679417
17.34277796887374
17.34296598980382
17.343124348591914
17.343244812910363
17.343320313817216
17.343346048853007
17.440279736314846
17.440296816353428
17.44034719716258
17.440428436713027
17.440536879435157
17.44066816117602
17.4408177357123
17.440981316196364
17.441155184278298
17.44133634641613
17.441522571328296
17.441712336430747
17.441904723470515
17.442099293863656
17.44229595601051
17.44249483335868
17.44269613703263
17.442900037075745
17.443106528707073
17.4433152889861
17.443525521558183
17.443735794339837
17.443943877581567
17.444146613588963
17.4443398483178
17.444518479825717
17.444676671487024
17.444808260459293
17.444907349937118
17.444969009061968
17.44498994774616
17.54237698861535
17.542391368004555
17.54243390541964
17.542502881094833
17.54259568296812
17.542709124625755
17.542839791316624
17.542984347429872
17.543139773137177
17.54330350584868
17.54347350175017
17.543648226633387
17.54382660024637
17.544007915334845
17.544191740433202
17.544377815252098
17.544565944714748
17.544755889382003
17.54494725256194
17.54513936357438
17.54533115857555
17.545521066158344
17.54570690536915
17.545885821618217
17.5460542789746
17.546208142479458
17.54634287225775
17.54645383676421
17.546536726575326
17.546588014327448
17.5466053801825
17.644373466620365
17.644385775799492
17.64442227143276
17.64448170962483
17.644562178156054
17.644661301932402
17.644776474453636
17.644905072633176
17.645044634152352
17.645192975081613
17.645348254926
17.645508988916983
17.645674021778756
17.645842477126273
17.646013688224304
17.646187117791055
17.64636227349983
17.646538618952185
17.646715482666572
17.64689196688085
17.647066859367275
17.64723855581594
17.647404998976814
17.647563654204827
17.647711531208287
17.647845272201412
17.64796131462576
17.64805612641273
17.648126496342933
17.648169841836875
17.64818448447057
17.74627301172921
17.746283700956216
17.746315449947655
17.74636733615211
17.746437926691012
17.746525414171533
17.746627774176012
17.74674291628311
17.746868815808565
17.747003607542897
17.747145645400025
17.74729352347699
17.74744606681983
17.747602301263356
17.747761405392843
17.74792265083232
17.748085337247883
17.748248722758497
17.74841195334388
17.748573994120267
17.748733566242876
17.748889096340143
17.74903868282478
17.749180093910912
17.749310801362018
17.74942806212992
17.749529049350386
17.74961102754631
17.749671557951366
17.74970870811368
17.749721234602234
17.848078528166518
17.848087927822284
17.8481158857231
17.848161700911
17.848224274886622
17.84830220321499
17.848393884415962
17.848497626972076
17.84861174699825
17.84873464128567
17.84886483853606
17.84900102260562
17.849142032659994
17.849286846507663
17.84943454824577
17.84958428504252
17.849735218795995
17.849886473609615
17.85003708294102
17.850185939568195
17.85033175200268
17.850473013231337
17.850607984453067
17.850734705005646
17.85085102894341
17.850954695764788
17.851043433716093
17.851115090063484
17.851167777672934
17.8512000201394
17.851210875562508
17.94652957287475
17.946537928060913
17.946562806853755
17.94660366405152
17.946659638451393
17.94672961575423
17.94681230500446
17.946906315070763
17.947010227226276
17.947122651419633
17.947242268835996
17.94736785419523
17.94749828080313
17.9476325126769
17.947769583612864
17.947908566877704
17.94804854050078
17.948188548997223
17.948327565199047
17.948464455162714
17.948597949326057
17.94872662472952
17.948848899635603
17.94896304912014
17.949067240036932
17.949159590211885
17.949238249116064
17.949301494970722
17.949347840483576
17.94937613492078
17.949385649590717
18.03834204165819
18.03834953713855
18.038371875505028
18.038408622987447
18.038459089541345
18.038522372745742
18.03859741224539
18.038683044913878
18.038778059076158
18.038881237662856
18.038991392989985
18.03910738684292
18.039228137859418
18.039352619330366
18.0394798464975
18.039608856137907
18.03973868267191
18.03986833135533
18.039996751836483
18.040122814658773
18.04024529331682
18.040362855718424
18.040474065409466
18.040577399281105
18.040671279062384
18.040754119978224
18.040824393549908
18.0408807003461
18.04092184708858
18.040946919509228
18.0409553424322
18.123483788056934
18.12349056839521
18.12351078933832
18.123544098046946
18.123589929665968
18.12364753842302
18.12371603696465
18.12379443653725
18.1238816878174
18.123976714028657
18.124078439201778
18.12418580572993
18.124297782674518
18.124413367199445
18.124531577751316
18.12465144110036
18.124771976820046
18.124892179454395
18.125011001182784
18.125127337110257
18.125240015234446
18.125347794135987
18.125449368070136
18.125543384875392
18.125628473486668
18.125703283617177
18.125766534720217
18.12581707088697
18.12585391772127
18.125876335095054
18.12588386007697
18.201924984161007
18.201931164926417
18.201949607704933
18.20198001924231
18.202021927428124
18.20207470365194
18.202137591647663
18.202209737080604
18.202290218615317
18.20237807345409
18.20247232034312
18.20257197473226
18.202676057265204
18.20278359751858
18.2028936313569
18.20300519351584
18.203117308433196
18.203228979281864
18.20333917755202
18.203446834871063
18.203550838620085
18.203650033747806
18.20374323000729
18.203829219110517
18.203906798411154
18.203974803229606
18.204032145220935
18.20407785417636
18.204111120489067
18.204131333904645
18.20413811468362
18.27363807125395
18.273643746795216
18.273660689178364
18.27368864955751
18.273727225330173
18.273775876449687
18.273833946911154
18.273900686807004
18.27397527627458
18.274056845362974
18.27414449290531
18.274237299594542
18.274334336298928
18.27443466924349
18.274537360306297
18.274641463670946
18.274746021394265
18.274850057592367
18.27495257317763
18.275052542446893
18.275148912670755
18.27524060857929
18.275326540682894
18.27540562126325
18.27547678465495
18.275539013679577
18.27559136995791
18.275633026085806
18.27566329776205
18.27568167267282
18.275687833473548
18.338597737563028
18.33860298649459
18.338618660527647
18.338644544266817
18.33868028773087
18.338725418445385
18.338779357726
18.338841437354205
18.338910918327183
18.33898700650493
18.33906886827998
18.33915564192473
18.339246445580265
18.339340383321623
18.339436547509614
18.33953401839601
18.33963186317017
18.339729133948914
18.339824866290385
18.33991807920892
18.340007777513225
18.340092957976303
18.340172618101704
18.340245770841847
18.34031146199265
18.340368791980897
18.340416940074302
18.340455189466667
18.340482951939475
18.340499789729968
18.340505432759024
18.396781301936876
18.39678619107208
18.39680079441746
18.39682492199052
18.39685826397129
18.396900399825384
18.396950810884434
18.397008893165772
18.397073972324563
18.397145316175006
18.397222147905822
18.39730365603541
18.397389002031773
18.397477326901313
18.39756775496262
18.39765939557001
18.397751344678216
18.397842685597404
18.397932490231504
18.39801982151664
18.398103737628833
18.398183299174637
18.398257578033054
18.39832567084861
18.398386714044808
18.398439901983505
18.398484506565453
18.398519897081027
18.398545559450767
18.398561113064105
18.398566323922125
18.44816798972502
18.448172576948707
18.448186281194392
18.44820893189625
18.448240250047228
18.448279855220985
18.44832727550516
18.448381957551014
18.448443278750783
18.448510557452575
18.44858306431078
18.44866003114219
18.44874065819016
18.448824121006325
18.448909575196307
18.448996159644324
18.44908299987488
18.44916921078824
18.449253899833764
18.449336171135194
18.44941513094431
18.449489895415322
18.44955959932164
18.449623408446772
18.449680532673213
18.449730241333285
18.44977187933674
18.449804883154158
18.449828796106445
18.449843281578797
18.449848133242227
18.4927399074545
18.492744243849724
18.492757200677808
18.49277862223057
18.49280825316716
18.492845744045244
18.492890659358583
18.49294248559724
18.493000641401267
18.49306448608231
18.493133329568217
18.493206440405764
18.493283052707305
18.493362373180947
18.49344358653027
18.493525859729093
18.49360834664603
18.493690192177112
18.493770536771965
18.49384852171272
18.49392329537862
18.49399402132404
18.494059886774835
18.494120114071308
18.494173972228136
18.494220790129837
18.49425997005326
18.494291000797023
18.49431347008907
18.49432707518114
18.494331630973498
18.530481138710854
18.530485270172825
18.530497616054134
18.53051803196103
18.530546280634034
18.530582036423585
18.530624891973353
18.530674364857884
18.530729906268153
18.530790908300357
18.530856712851843
18.530926618972067
18.53099988954039
18.531075758357144
18.5311534359756
18.53123211469966
18.531310974081382
18.531389186022928
18.53146592023177
18.53154035027338
18.53161166034904
18.53167905350497
18.531741759878763
18.531799047356525
18.53185023194004
18.53189468930782
18.53193186639877
18.531961292447676
18.5319825892979
18.531995480107117
18.53199979596875
18.561378486299677
18.561382454780805
18.56139431460643
18.561413929871403
18.561441076919827
18.561475448079936
18.561516657390218
18.561564246230926
18.561617690958787
18.561676409310554
18.56173976853061
18.56180709223478
18.561877666870828
18.561950748820827
18.5620255705123
18.562101345903862
18.562177276573536
18.56225255747927
18.56232638303875
18.562397953689022
18.562466482977833
18.562531205805485
18.562591386432345
18.562646328508627
18.562695384533765
18.5627379662013
18.562773554562426
18.562801709545223
18.562822078762697
18.562834404870596
18.56283853112116
18.585421104773896
18.585424949274554
18.585436439253108
18.585455444969806
18.58548175267157
18.585515067819756
18.58555502015632
18.585601168641954
18.585653008358914
18.585709976297238
18.585771458936783
18.58583679875991
18.585905300545353
18.585976238458564
18.586048862336934
18.586122403495224
18.586196081201738
18.586269108872628
18.58634070055901
18.586410077827946
18.586476477037593
18.586539157562864
18.5865974095997
18.586650563718422
18.586697999658735
18.58673915579968
18.586773538314958
18.58680072962525
18.586820396154387
18.586832294749765
18.58683627749657
18.602600415568176
18.60260417294859
18.60261540298713
18.602633980129752
18.602659697358252
18.602692269089566
18.602731335812212
18.602776468573815
18.602827175403323
18.602882906692457
18.602943062414205
18.603006998399128
18.603074032511955
18.60314345172286
18.60321451849575
18.603286476791734
18.603358558786166
18.603429991332966
18.603500002702848
18.60356782965733
18.603632724825047
18.60369396489576
18.60375085827136
18.6038027542858
18.60384905154745
18.60388920682048
18.60392274350839
18.603949259400867
18.603968433737286
18.603980033012586
18.603983915307964
18.6129104446741
18.61291415034241
18.612925226068445
18.61294354872673
18.61296891521118
18.613001045150085
18.61303958530066
18.613084113782627
18.613134146228724
18.613189140936463
18.613248505879017
18.613311604845133
18.61337776354606
18.613446276671542
18.613516414331812
18.61358742816843
18.61365855820155
18.61372903944129
18.613798108761276
18.613865012074477
18.61392901175883
18.613989394824685
18.6140454804711
18.61409662910864
18.614142250438533
18.61418181199517
18.614214847245126
18.614240962932097
18.614259845747277
18.61427126778714
18.614275090610903
18.61634751404782
18.616351202570737
18.61636222713061
18.61638046539809
18.616405715550254
18.616437698926354
18.616476064344067
18.616520392251328
18.61657020078872
18.616624950866996
18.61668405311041
18.61674687395196
18.616812741717364
18.616880953675256
18.61695078249582
18.61702148239544
18.617092296025238
18.617162461128878
18.61723121745875
18.617297813983527
18.617361516328348
18.61742161493222
18.617477432572343
18.617528333321598
18.617573730541473
18.61761309531388
18.617645964414994
18.617671947529736
18.61769073379467
18.6177020971431
18.61770590027425
