# vtk DataFile Version 2.0
Unstructured Grid Example
ASCII
DATASET UNSTRUCTURED_GRID

POINTS 961 float
0.400000004 0.01999999956 0
0.3866666556 0.01999999956 0
0.3733333348 0.01999999956 0
0.3600000144 0.01999999956 0
0.346666664 0.01999999956 0
0.3333333432 0.01999999956 0
0.3199999928 0.01999999956 0
0.3066666724 0.01999999956 0
0.293333322 0.01999999956 0
0.2800000012 0.01999999956 0
0.2666666804 0.01999999956 0
0.25333333 0.01999999956 0
0.2399999948 0.01999999956 0
0.226666674 0.01999999956 0
0.2133333384 0.01999999956 0
0.2000000028 0.01999999956 0
0.1866666676 0.01999999956 0
0.173333332 0.01999999956 0
0.1599999964 0.01999999956 0
0.1466666608 0.01999999956 0
0.1333333404 0.01999999956 0
0.1199999972 0.01999999956 0
0.1066666692 0.01999999956 0
0.0933333336 0.01999999956 0
0.0799999984 0.01999999956 0
0.06666667 0.01999999956 0
0.0533333348 0.01999999956 0
0.03999999912 0.01999999956 0
0.02666666732 0.01999999956 0
0.01333333364 0.01999999956 0
0.0 0.01999999956 0
0.400000004 0.00666666684 0
0.3866666556 0.00666666684 0
0.3733333348 0.00666666684 0
0.3600000144 0.00666666684 0
0.346666664 0.00666666684 0
0.3333333432 0.00666666684 0
0.3199999928 0.00666666684 0
0.3066666724 0.00666666684 0
0.293333322 0.00666666684 0
0.2800000012 0.00666666684 0
0.2666666804 0.00666666684 0
0.25333333 0.00666666684 0
0.2399999948 0.00666666684 0
0.226666674 0.00666666684 0
0.2133333384 0.00666666684 0
0.2000000028 0.00666666684 0
0.1866666676 0.00666666684 0
0.173333332 0.00666666684 0
0.1599999964 0.00666666684 0
0.1466666608 0.00666666684 0
0.1333333404 0.00666666684 0
0.1199999972 0.00666666684 0
0.1066666692 0.00666666684 0
0.0933333336 0.00666666684 0
0.0799999984 0.00666666684 0
0.06666667 0.00666666684 0
0.0533333348 0.00666666684 0
0.03999999912 0.00666666684 0
0.02666666732 0.00666666684 0
0.01333333364 0.00666666684 0
0.0 0.00666666684 0
0.400000004 -0.00666666684 0
0.3866666556 -0.00666666684 0
0.3733333348 -0.00666666684 0
0.3600000144 -0.00666666684 0
0.346666664 -0.00666666684 0
0.3333333432 -0.00666666684 0
0.3199999928 -0.00666666684 0
0.3066666724 -0.00666666684 0
0.293333322 -0.00666666684 0
0.2800000012 -0.00666666684 0
0.2666666804 -0.00666666684 0
0.25333333 -0.00666666684 0
0.2399999948 -0.00666666684 0
0.226666674 -0.00666666684 0
0.2133333384 -0.00666666684 0
0.2000000028 -0.00666666684 0
0.1866666676 -0.00666666684 0
0.173333332 -0.00666666684 0
0.1599999964 -0.00666666684 0
0.1466666608 -0.00666666684 0
0.1333333404 -0.00666666684 0
0.1199999972 -0.00666666684 0
0.1066666692 -0.00666666684 0
0.0933333336 -0.00666666684 0
0.0799999984 -0.00666666684 0
0.06666667 -0.00666666684 0
0.0533333348 -0.00666666684 0
0.03999999912 -0.00666666684 0
0.02666666732 -0.00666666684 0
0.01333333364 -0.00666666684 0
0.0 -0.00666666684 0
0.400000004 -0.01999999956 0
0.3866666556 -0.01999999956 0
0.3733333348 -0.01999999956 0
0.3600000144 -0.01999999956 0
0.346666664 -0.01999999956 0
0.3333333432 -0.01999999956 0
0.3199999928 -0.01999999956 0
0.3066666724 -0.01999999956 0
0.293333322 -0.01999999956 0
0.2800000012 -0.01999999956 0
0.2666666804 -0.01999999956 0
0.25333333 -0.01999999956 0
0.2399999948 -0.01999999956 0
0.226666674 -0.01999999956 0
0.2133333384 -0.01999999956 0
0.2000000028 -0.01999999956 0
0.1866666676 -0.01999999956 0
0.173333332 -0.01999999956 0
0.1599999964 -0.01999999956 0
0.1466666608 -0.01999999956 0
0.1333333404 -0.01999999956 0
0.1199999972 -0.01999999956 0
0.1066666692 -0.01999999956 0
0.0933333336 -0.01999999956 0
0.0799999984 -0.01999999956 0
0.06666667 -0.01999999956 0
0.0533333348 -0.01999999956 0
0.03999999912 -0.01999999956 0
0.02666666732 -0.01999999956 0
0.01333333364 -0.01999999956 0
0.0 -0.01999999956 0
0.400000004 -0.03333333508 0
0.3866666556 -0.03333333508 0
0.3733333348 -0.03333333508 0
0.3600000144 -0.03333333508 0
0.346666664 -0.03333333508 0
0.3333333432 -0.03333333508 0
0.3199999928 -0.03333333508 0
0.3066666724 -0.03333333508 0
0.293333322 -0.03333333508 0
0.2800000012 -0.03333333508 0
0.2666666804 -0.03333333508 0
0.25333333 -0.03333333508 0
0.2399999948 -0.03333333508 0
0.226666674 -0.03333333508 0
0.2133333384 -0.03333333508 0
0.2000000028 -0.03333333508 0
0.1866666676 -0.03333333508 0
0.173333332 -0.03333333508 0
0.1599999964 -0.03333333508 0
0.1466666608 -0.03333333508 0
0.1333333404 -0.03333333508 0
0.1199999972 -0.03333333508 0
0.1066666692 -0.03333333508 0
0.0933333336 -0.03333333508 0
0.0799999984 -0.03333333508 0
0.06666667 -0.03333333508 0
0.0533333348 -0.03333333508 0
0.03999999912 -0.03333333508 0
0.02666666732 -0.03333333508 0
0.01333333364 -0.03333333508 0
0.0 -0.03333333508 0
0.400000004 -0.0466666668 0
0.3866666556 -0.0466666668 0
0.3733333348 -0.0466666668 0
0.3600000144 -0.0466666668 0
0.346666664 -0.0466666668 0
0.3333333432 -0.0466666668 0
0.3199999928 -0.0466666668 0
0.3066666724 -0.0466666668 0
0.293333322 -0.0466666668 0
0.2800000012 -0.0466666668 0
0.2666666804 -0.0466666668 0
0.25333333 -0.0466666668 0
0.2399999948 -0.0466666668 0
0.226666674 -0.0466666668 0
0.2133333384 -0.0466666668 0
0.2000000028 -0.0466666668 0
0.1866666676 -0.0466666668 0
0.173333332 -0.0466666668 0
0.1599999964 -0.0466666668 0
0.1466666608 -0.0466666668 0
0.1333333404 -0.0466666668 0
0.1199999972 -0.0466666668 0
0.1066666692 -0.0466666668 0
0.0933333336 -0.0466666668 0
0.0799999984 -0.0466666668 0
0.06666667 -0.0466666668 0
0.0533333348 -0.0466666668 0
0.03999999912 -0.0466666668 0
0.02666666732 -0.0466666668 0
0.01333333364 -0.0466666668 0
0.0 -0.0466666668 0
0.400000004 -0.0599999988 0
0.3866666556 -0.0599999988 0
0.3733333348 -0.0599999988 0
0.3600000144 -0.0599999988 0
0.346666664 -0.0599999988 0
0.3333333432 -0.0599999988 0
0.3199999928 -0.0599999988 0
0.3066666724 -0.0599999988 0
0.293333322 -0.0599999988 0
0.2800000012 -0.0599999988 0
0.2666666804 -0.0599999988 0
0.25333333 -0.0599999988 0
0.2399999948 -0.0599999988 0
0.226666674 -0.0599999988 0
0.2133333384 -0.0599999988 0
0.2000000028 -0.0599999988 0
0.1866666676 -0.0599999988 0
0.173333332 -0.0599999988 0
0.1599999964 -0.0599999988 0
0.1466666608 -0.0599999988 0
0.1333333404 -0.0599999988 0
0.1199999972 -0.0599999988 0
0.1066666692 -0.0599999988 0
0.0933333336 -0.0599999988 0
0.0799999984 -0.0599999988 0
0.06666667 -0.0599999988 0
0.0533333348 -0.0599999988 0
0.03999999912 -0.0599999988 0
0.02666666732 -0.0599999988 0
0.01333333364 -0.0599999988 0
0.0 -0.0599999988 0
0.400000004 -0.0733333304 0
0.3866666556 -0.0733333304 0
0.3733333348 -0.0733333304 0
0.3600000144 -0.0733333304 0
0.346666664 -0.0733333304 0
0.3333333432 -0.0733333304 0
0.3199999928 -0.0733333304 0
0.3066666724 -0.0733333304 0
0.293333322 -0.0733333304 0
0.2800000012 -0.0733333304 0
0.2666666804 -0.0733333304 0
0.25333333 -0.0733333304 0
0.2399999948 -0.0733333304 0
0.226666674 -0.0733333304 0
0.2133333384 -0.0733333304 0
0.2000000028 -0.0733333304 0
0.1866666676 -0.0733333304 0
0.173333332 -0.0733333304 0
0.1599999964 -0.0733333304 0
0.1466666608 -0.0733333304 0
0.1333333404 -0.0733333304 0
0.1199999972 -0.0733333304 0
0.1066666692 -0.0733333304 0
0.0933333336 -0.0733333304 0
0.0799999984 -0.0733333304 0
0.06666667 -0.0733333304 0
0.0533333348 -0.0733333304 0
0.03999999912 -0.0733333304 0
0.02666666732 -0.0733333304 0
0.01333333364 -0.0733333304 0
0.0 -0.0733333304 0
0.400000004 -0.086666666 0
0.3866666556 -0.086666666 0
0.3733333348 -0.086666666 0
0.3600000144 -0.086666666 0
0.346666664 -0.086666666 0
0.3333333432 -0.086666666 0
0.3199999928 -0.086666666 0
0.3066666724 -0.086666666 0
0.293333322 -0.086666666 0
0.2800000012 -0.086666666 0
0.2666666804 -0.086666666 0
0.25333333 -0.086666666 0
0.2399999948 -0.086666666 0
0.226666674 -0.086666666 0
0.2133333384 -0.086666666 0
0.2000000028 -0.086666666 0
0.1866666676 -0.086666666 0
0.173333332 -0.086666666 0
0.1599999964 -0.086666666 0
0.1466666608 -0.086666666 0
0.1333333404 -0.086666666 0
0.1199999972 -0.086666666 0
0.1066666692 -0.086666666 0
0.0933333336 -0.086666666 0
0.0799999984 -0.086666666 0
0.06666667 -0.086666666 0
0.0533333348 -0.086666666 0
0.03999999912 -0.086666666 0
0.02666666732 -0.086666666 0
0.01333333364 -0.086666666 0
0.0 -0.086666666 0
0.400000004 -0.1000000016 0
0.3866666556 -0.1000000016 0
0.3733333348 -0.1000000016 0
0.3600000144 -0.1000000016 0
0.346666664 -0.1000000016 0
0.3333333432 -0.1000000016 0
0.3199999928 -0.1000000016 0
0.3066666724 -0.1000000016 0
0.293333322 -0.1000000016 0
0.2800000012 -0.1000000016 0
0.2666666804 -0.1000000016 0
0.25333333 -0.1000000016 0
0.2399999948 -0.1000000016 0
0.226666674 -0.1000000016 0
0.2133333384 -0.1000000016 0
0.2000000028 -0.1000000016 0
0.1866666676 -0.1000000016 0
0.173333332 -0.1000000016 0
0.1599999964 -0.1000000016 0
0.1466666608 -0.1000000016 0
0.1333333404 -0.1000000016 0
0.1199999972 -0.1000000016 0
0.1066666692 -0.1000000016 0
0.0933333336 -0.1000000016 0
0.0799999984 -0.1000000016 0
0.06666667 -0.1000000016 0
0.0533333348 -0.1000000016 0
0.03999999912 -0.1000000016 0
0.02666666732 -0.1000000016 0
0.01333333364 -0.1000000016 0
0.0 -0.1000000016 0
0.400000004 -0.1133333372 0
0.3866666556 -0.1133333372 0
0.3733333348 -0.1133333372 0
0.3600000144 -0.1133333372 0
0.346666664 -0.1133333372 0
0.3333333432 -0.1133333372 0
0.3199999928 -0.1133333372 0
0.3066666724 -0.1133333372 0
0.293333322 -0.1133333372 0
0.2800000012 -0.1133333372 0
0.2666666804 -0.1133333372 0
0.25333333 -0.1133333372 0
0.2399999948 -0.1133333372 0
0.226666674 -0.1133333372 0
0.2133333384 -0.1133333372 0
0.2000000028 -0.1133333372 0
0.1866666676 -0.1133333372 0
0.173333332 -0.1133333372 0
0.1599999964 -0.1133333372 0
0.1466666608 -0.1133333372 0
0.1333333404 -0.1133333372 0
0.1199999972 -0.1133333372 0
0.1066666692 -0.1133333372 0
0.0933333336 -0.1133333372 0
0.0799999984 -0.1133333372 0
0.06666667 -0.1133333372 0
0.0533333348 -0.1133333372 0
0.03999999912 -0.1133333372 0
0.02666666732 -0.1133333372 0
0.01333333364 -0.1133333372 0
0.0 -0.1133333372 0
0.400000004 -0.1266666652 0
0.3866666556 -0.1266666652 0
0.3733333348 -0.1266666652 0
[...]
POINT_DATA 961
SCALARS Temp float 1
LOOKUP_TABLE default
0.7599084533671585
0.7902615967477779
0.812048694497617
0.8278944873885151
0.8395090064298054
0.8480648898659823
0.8543970168343117
0.8591063362405547
0.8626302775311905
0.8652893833575318
0.8673213410587657
0.868904579855881
0.8701754878465323
0.8712418123757573
0.8721926586195929
0.8731064214255049
0.874058049292602
0.8751257218460345
0.8763978650199755
0.8779811765497827
0.8800103996225128
0.8826611904350872
0.8861665192909085
0.8908399745395138
0.8971070469342233
0.9055495279321595
0.9169687642568973
0.9324781992032861
0.9536443422557819
0.9827405764584861
1.0233736102230675
0.8020383873253669
0.8318015144863131
0.8533546708594852
0.869113750458441
0.8806884124173285
0.8892279389060598
0.8955551493286615
0.9002652519808658
0.903792675970502
0.9064564021515746
0.9084933153903217
0.9100814667718271
0.9113571098424339
0.912427987905284
0.9133832746226607
0.914301476009254
0.9152576672700649
0.916330154010163
0.917607468198169
0.9191963654480964
0.921231553985193
0.9238884767009053
0.9273995829960335
0.9320773722748765
0.9383452286256917
0.946780932236493
0.958178124177428
0.9736343230912473
0.9946828789828726
1.0234825579609916
1.0631597646594
2.774494431282488
2.778917782853011
2.791245865111065
2.8026193227806346
2.8120278146047797
2.8195171921766367
2.8253849604897194
2.829952435505738
2.8335046836790987
2.8362783339603537
2.838464854442364
2.8402182125569686
2.8416631812954307
2.842903109913516
2.8440268401608577
2.845114890863255
2.846245210224882
2.8474988173336446
2.848965637562911
2.850750894260843
2.852982413297611
2.855819081939845
2.859460606632591
2.8641581849436486
2.8702244198051248
2.8780373775133317
2.888024130607873
2.9005801272901524
2.915765292414277
2.932219969439317
2.938127358366168
4.722324978917954
4.724739515471758
4.7306664829733345
4.7380740481231385
4.745100286641098
4.751195124693913
4.756268888051148
4.760406422861822
4.763748308160512
4.766442767322773
4.768627327273477
4.770423331643032
4.771936164899601
4.773257934812329
4.774471110483937
4.775652513146694
4.776877448901776
4.778223921806076
4.7797769608533525
4.781633071866396
4.783904718726093
4.7867245206408064
4.79024824284607
4.7946547049936985
4.800138133868359
4.806883317213545
4.815001245042673
4.824370104421502
4.834252755061281
4.842162218699114
4.845384308188092
6.664365133116231
6.665650799279096
6.669125797263122
6.673832019983351
6.678845787455256
6.683559521849088
6.687722973912807
6.691276853819962
6.694254943211554
6.696731048087981
6.698792236133316
6.700526102372143
6.702015566580728
6.70333767282092
6.7045644596116
6.705764915317772
6.70700749333302
6.7083628620572835
6.709906679859206
6.711722149162903
6.713901951789952
6.716548859445802
6.719773616097262
6.723687641880192
6.728385728588052
6.733909980657105
6.740178851081021
6.746856080347266
6.753128782328808
6.757762360405684
6.7594769886103405
8.602891074873513
8.60367470227935
8.605843280575902
8.608948968621405
8.612473400972522
8.616002992073335
8.619285080608973
8.622205527808536
8.624737782084813
8.626904431300074
8.628752845615454
8.63034102295233
8.631730074772078
8.632980804338377
8.634152694495052
8.635304297645742
8.636494395160536
8.637783468536364
8.63923513038041
8.64091712318083
8.642901341842803
8.645262052703547
8.648070900615274
8.651386584141221
8.655235696188203
8.659579926933922
8.664264618885287
8.668950556859336
8.673084093129933
8.675972074397993
8.67701593171019
10.539031459029514
10.539531077857422
10.540939858278689
10.543023126981826
10.54548749668205
10.54806494798924
10.550561028524232
10.552861658920795
10.55491744545382
10.556722561505449
10.558297582753683
10.559677599200866
10.560904834583306
10.562024538496495
10.563083039306239
10.564127161468239
10.565204428141088
10.566363579187133
10.567655012904147
10.569130722962276
10.570843183228867
10.572842436668434
10.575170282502508
10.577850194440488
10.58087123893467
10.584164938006328
10.587576993569966
10.59084617921622
10.593613443655162
10.595486195059465
10.596150589833904
12.473280581345877
12.473602922037603
12.474521934939322
12.475909515259561
12.477596438816573
12.4794154387029
12.481231503003867
12.482953705574653
12.484532717767806
12.485951551839037
12.487215431490494
12.488343458548888
12.489362726290947
12.490304608497617
12.49120266489741
12.49209164894279
12.49300717877442
12.49398567376386
12.495064206368292
12.496279889987074
12.497668348560662
12.49926071315048
12.501078432344755
12.503125249820853
12.505375923051862
12.507762536536706
12.51016208409779
12.512393024699449
12.514231079188681
12.51544962455009
12.515877216449507
14.4058813620015
14.406080906294722
14.40665404068062
14.407531499884845
14.408618622405235
14.409816996739572
14.41104178979154
14.412230845455065
14.413346136597552
14.414370359535734
14.415301779628061
14.416149239074871
14.416928222903156
14.41765813952534
14.418360617628494
14.419058547685509
14.419775589984143
14.420535868686503
14.421363594859775
14.422282341840283
14.423313658908612
14.424474677664302
14.425774332049189
14.427208004031751
14.428750757027325
14.430350345947643
14.431922632139479
14.433353438815006
14.434510696388173
14.435267536480813
14.435531195304117
16.33694983836064
16.337054952853663
16.337358608476332
16.337828711928587
16.338420444851202
16.339085698059762
16.339781189336353
16.34047338463823
16.341140064817637
16.341769421116034
16.342357969746516
16.3429082298964
16.34342672475085
16.34392249632685
16.34440609904254
16.344888966537077
16.345383021143366
16.34590037847291
16.34645300931714
16.34705221078217
16.34770772584026
16.348426351227385
16.349209883097352
16.35005240266531
16.35093712662851
16.3518335672795
16.35269630784959
16.35346704968922
16.35408118210563
16.35447859746033
16.354616288028975
18.266539575821316
18.266563087177683
18.266632265768074
18.26674329120444
18.26689053665494
18.2670674410148
18.267267370863387
18.267484288141148
18.26771315936547
18.267950106275098
18.268192378123672
18.268438209959566
18.268686634371196
18.268937290083418
18.26919024064899
18.26944580940217
18.269704429979207
18.269966499434
18.270232224175317
18.270501447315105
18.270773448153793
18.271046713006854
18.271318680180443
18.271585496107424
18.27184182695185
18.272080817208845
18.27229429536214
18.272473313858555
18.27260904431278
18.272693924536764
18.272722824369076
18.3741933042434
18.37421302207001
18.374271250958117
18.374365360706136
18.37449140551506
18.37464465747309
18.37482016346483
18.37501321224624
18.37521966284499
18.375436111379113
18.37565993346326
18.375889230343454
18.376122721580778
18.376359616923157
18.37659947957891
18.376842090245496
18.377087316373327
18.37733497988212
18.3775847197078
18.377835844285002
18.378087171441592
18.37833686103094
18.378582247517492
18.378819706491363
18.379044585915246
18.379251260811735
18.379433361572325
18.379584207961145
18.379697436786742
18.37976774268255
18.37979159185025
18.48172809475097
18.481744995731567
18.481795046512797
18.481876377863557
18.481986143224248
18.482120854926862
18.48227675071034
18.482450119468133
18.482637553190273
18.48283609810183
18.483043322489383
18.483257309686888
18.483476602189945
18.483700119697538
18.48392705988881
18.484156791369514
18.4843887456304
18.484622305121203
18.48485668792718
18.4850908284515
18.48532325551302
18.485551975669296
18.485774369175907
18.48598712644298
18.486186243391412
18.48636711189605
18.486524727919072
18.486654024979206
18.486750313426437
18.486809767908387
18.486829877902917
18.589149276154213
18.589164043365056
18.589207870455947
18.589279388700582
18.589376487336047
18.589496531130003
18.589636606090025
18.58979374748184
18.58996512926239
18.590148190093867
18.590340704920386
18.590540800642025
18.59074693132236
18.59095782834538
18.5911724307957
18.59138980427202
18.591609055623678
18.59182924284309
18.59204928297683
18.592267859911672
18.592483335331927
18.592693671018772
18.592896368346885
18.59308844670763
18.593266470052235
18.59342664358421
18.593564988824898
18.593677594817674
18.593760927157707
18.593812154896188
18.593829442823427
18.69646079684804
18.696473923789924
18.696512948816522
18.696576840133257
18.69666398923349
18.696772355030635
18.69689963157294
18.6970434087939
18.697201313890815
18.697371112187156
18.697550773097603
18.697738495124874
18.697932699085076
18.698131999945613
18.69833515969273
18.698541027883635
18.69874847711248
18.6989563335721
18.69916330668422
18.699367920783203
18.699568452735576
18.699762882984135
18.699948863894416
18.700123722086992
18.700284497805335
18.700428034888603
18.700551122487994
18.700650682995178
18.70072399141962
18.70076889873889
18.700784026282577
18.8036655822866
18.803677436683223
18.80371272507586
18.803770646791584
18.803849941695322
18.80394898772323
18.804065917394926
18.804198732185807
18.80434540805517
18.804503974543685
18.804672571973654
18.804849478846982
18.805033115081326
18.805222028224087
18.805414863006558
18.805610319443765
18.805807106050743
18.80600388859354
18.80619923863951
18.806391585177987
18.806579173052995
18.806760034624865
18.806931976730358
18.8070925958378
18.80723932062417
18.807369490658257
18.807480469098806
18.807569783385844
18.807635282782574
18.80767529381024
18.807688752532883
18.907154279766658
18.907165119012305
18.90719741837059
18.907250538895934
18.90732346650546
18.90741487926802
18.907523229745493
18.907646827210915
18.907783916798177
18.90793274096888
18.908091587672
18.908258816838263
18.908432868883388
18.908612260333335
18.90879556556242
18.90898138865195
18.90916833116126
18.909354956088713
18.909539752107754
18.909721101162837
18.90989725268025
18.910066309694304
18.910226227516176
18.910374835123182
18.91050987626162
18.910629076191192
18.9107302307153
18.910811312060574
18.910870583483895
18.910906709403065
18.910918847370198
19.003300685161417
19.003310682230115
19.00334049524355
19.003389600923597
19.003457162622038
19.00354207757645
19.003643036083606
19.003758581257422
19.003887168870648
19.004027215024188
19.00417713617321
19.004335373351132
19.004500403205906
19.004670739712655
19.004844924695178
19.005021510228858
19.005199037953993
19.005376015275708
19.005550892123594
19.00572204094578
19.005887742592563
19.00604618238042
19.006195455904937
19.006333592859615
19.006458594647732
19.006568490182342
19.00666140621439
19.00673564764938
19.006789782060824
19.006822719085275
19.006833775657856
19.092094375821244
19.09210366209405
19.092131371852023
19.09217706596972
19.09224003783201
19.09231934709387
19.09241386293596
19.092522308028023
19.09264330427326
19.092775409907095
19.09291715268888
19.09306705149622
19.093223628379402
19.09338541417213
19.09355094528621
19.093718754054034
19.093887356966246
19.094055240438415
19.094220847288867
19.094382566122032
19.094538725683126
19.094687597627637
19.094827406538606
19.094956354096173
19.095072652610842
19.095174571471105
19.095260492975108
19.095328973898933
19.095378808739298
19.0954090879568
19.095419245152858
19.173541755137506
19.173550432960376
19.173576338845315
19.173619095906364
19.173678094335553
19.173752515936872
19.173841366315177
19.173943507659924
19.17405769419706
19.174182601293175
19.17431685311881
19.174459041728316
19.17460773932697
19.174761506344634
19.174918892669716
19.17507843387946
19.17523864623193
19.175398019735162
19.175555011989847
19.175708044535344
19.175855503242673
19.175995745518115
19.176127112661085
19.17624795332233
19.176356653068016
19.176451673134466
19.176531595142507
19.176595168896785
19.176641360466085
19.176669395679635
19.176678794910014
19.247664312825705
19.2476724643519
19.24769680743492
19.24773701195011
19.2477925412645
19.24786267038446
19.247946510369992
19.248043033157533
19.24815109948679
19.248269482005863
19.248396888562798
19.248531979077555
19.2486733776193
19.248819682002996
19.248969468132277
19.249121290533605
19.249273682363928
19.249425153939747
19.249574192046772
19.249719261349547
19.249858809011346
19.249991274754635
19.25011510439809
19.250228772123336
19.250330806480747
19.250419822955784
19.250494560204842
19.250553917714257
19.25059699298388
19.25062311462038
19.250631868492313
19.314496365677623
19.314504059174993
19.314527040401966
19.31456501488061
19.314617502076064
19.314683849076665
19.314763249497002
19.314854762600927
19.314957335715075
19.31506982285429
19.31519100460343
19.315319603138008
19.315454293931413
19.315593716259905
19.31573647969455
19.315881167735874
19.31602634147974
19.31617054215174
19.31631229439696
19.316450111302508
19.316582501916944
19.316707983086243
19.316825093460615
19.31693241441413
19.31702859299986
19.3171123696049
19.317182607737323
19.31723832419158
19.317278718341324
19.317303197817353
19.317311398581676
19.37408276547912
19.374090059858382
19.374111853147525
19.37414787838399
19.374197698562977
19.37426071716502
19.37433619312262
19.37442325584412
19.374520923579134
19.374628118708998
19.374743684992495
19.37486640107589
19.37499499177018
19.375128139064024
19.375264490076656
19.375402662892018
19.37554125284452
19.37567883793806
19.375813984978443
19.375945257122282
19.3760712233386
19.376190471289373
19.376301621387245
19.376403346386095
19.376494391791535
19.376573599651888
19.376639933446192
19.37669250269326
19.376730586493025
19.376753653871397
19.376761379523547
19.426475140332734
19.4264820884048
19.426502850090422
19.42653717986091
19.42658467478449
19.42664478281551
19.42671681493317
19.42679995720865
19.426893286193433
19.42699578173384
19.42710634219162
19.427223796743192
19.42734691623003
19.42747442442205
19.427605006942432
19.427737318635092
19.42786999169166
19.42800164310869
19.428130882810187
19.42825632292456
19.428376588509053
19.428490330990773
19.42859624204277
19.42869307195222
19.428779647947998
19.428854894972748
19.428917856853413
19.42896771678141
19.429003816640805
19.42902567349174
19.429032992204167
19.47172967943793
19.47173633022748
19.471756205776803
19.471789077320334
19.471834568690532
19.47189216301198
19.471961212802945
19.472040949907903
19.472130498697624
19.472228887051998
19.472335060034773
19.472447891236083
19.472566193230783
19.472688728931768
19.47281422114294
19.472941360975305
19.47306881724079
19.47319524532074
19.47331929665197
19.473439629155877
19.47355491875335
19.473663873056402
19.473765244948993
19.473857849881398
19.473940582520175
19.474012435178636
19.474072516175088
19.474120067244833
19.474154479775486
19.474175308484423
19.47418228180851
19.509902939955712
19.5099093403198
19.50992846903455
19.509960110395852
19.510003909169722
19.510059376150895
19.510125896799266
19.510202739636743
19.51028906784556
19.51038394890595
19.51048636710145
19.51059523411719
19.510709399156397
19.51082766028946
19.510948774398482
19.511071466293924
19.51119443895974
19.511316383377324
19.51143598892293
19.511551954542693
19.51166300073812
19.51176788332029
19.511865406659155
19.511954440069264
19.512033933132425
19.512102932331633
19.512160597296916
19.512206215947916
19.512239218465023
19.512259188930077
19.512265874097572
19.541049415152447
19.541055610863452
19.54107412902161
19.541104763944347
19.541147176510623
19.54120089891847
19.54126534227803
19.54133980391529
19.541423477812867
19.541515463272916
19.541614776553107
19.541720360898196
19.54183109637271
19.54194581115714
19.542063291725725
19.54218229241811
19.54230154624092
19.54241977532117
19.542535701895737
19.542648059952427
19.542755607477112
19.542857140168422
19.542951504368805
19.543037612711228
19.543114458417232
19.543181130578528
19.543236828840104
19.54328087688603
19.5433127347715
19.543332009099824
19.543338460636505
19.565218194396483
19.56522423082436
19.565242273651968
19.56527212462447
19.56531345659409
19.56536581772599
19.56542863836667
19.565501237589565
19.565582832822045
19.565672547822448
19.565769423690163
19.56587242848156
19.565980466819948
19.56609239112288
19.566207011910468
19.566323107662342
19.56643943596954
19.56655474438849
19.566667781800888
19.56677731033345
19.566882117737592
19.566981031022063
19.56707292911098
19.56715675792015
19.56723154389557
19.567296408311392
19.567350580833132
19.56739341182813
19.56742438354317
19.56744311925641
19.56744939008479
19.58245026018704
19.58245618267886
19.582473885435427
19.582503175329247
19.582543733493633
19.58259511916962
19.582656776099398
19.582728038576306
19.58280814053319
19.582896223065994
19.582991345021938
19.583092492331375
19.583198587458078
19.58330850056321
19.583421059881164
19.583535061745234
19.58364928194793
19.583762486835354
19.58387344488594
19.58398093878655
19.584083777871275
19.584180811669825
19.58427094235826
19.584353139430924
19.584426452715824
19.584490026004637
19.584543109863827
19.584585073162295
19.58461541348385
19.58463376560307
19.584639907762124
19.592776666089975
19.59278252012557
19.592800018532646
19.592828971193907
19.592869064110534
19.59291986304692
19.59298081965542
19.593051277245866
19.593130479567478
19.593217578073634
19.593311642267018
19.593411668865826
19.593516591157915
19.59362529012142
19.5937366048314
19.59384934257312
19.593962290311193
19.594074225910575
19.594183929829047
19.594290197270734
19.594391850646623
19.594487753062786
19.59457682064222
19.594658036955487
19.594730465729626
19.594793264090853
19.59484569494272
19.594887138045422
19.59491709999186
19.594935222298798
19.59494128738261
19.596216614698115
19.596222445896387
19.59623987612757
19.59626871626719
19.596308653922982
19.59635925701439
19.596419979810236
19.596490168607666
19.596569070414333
19.596655840129362
19.596749550808923
19.59684920277789
19.59695373295222
19.597062025943984
19.597172924476812
19.597285239526137
19.597397761821917
19.59750927310909
19.59761855787496
19.597724415525946
19.597825672853087
19.597921197498607
19.59800991023424
19.598090799311425
19.59816293306944
19.598225473051222
19.598277686240014
19.598318955992838
19.59834879187462
19.598366837624514
19.598372877034144
