# vtk DataFile Version 2.0
Unstructured Grid Example
ASCII
DATASET UNSTRUCTURED_GRID

POINTS 961 float
0.400000004 0.01999999956 0
0.3866666556 0.01999999956 0
0.3733333348 0.01999999956 0
0.3600000144 0.01999999956 0
0.346666664 0.01999999956 0
0.3333333432 0.01999999956 0
0.3199999928 0.01999999956 0
0.3066666724 0.01999999956 0
0.293333322 0.01999999956 0
0.2800000012 0.01999999956 0
0.2666666804 0.01999999956 0
0.25333333 0.01999999956 0
0.2399999948 0.01999999956 0
0.226666674 0.01999999956 0
0.2133333384 0.01999999956 0
0.2000000028 0.01999999956 0
0.1866666676 0.01999999956 0
0.173333332 0.01999999956 0
0.1599999964 0.01999999956 0
0.1466666608 0.01999999956 0
0.1333333404 0.01999999956 0
0.1199999972 0.01999999956 0
0.1066666692 0.01999999956 0
0.0933333336 0.01999999956 0
0.0799999984 0.01999999956 0
0.06666667 0.01999999956 0
0.0533333348 0.01999999956 0
0.03999999912 0.01999999956 0
0.02666666732 0.01999999956 0
0.01333333364 0.01999999956 0
0.0 0.01999999956 0
0.400000004 0.00666666684 0
0.3866666556 0.00666666684 0
0.3733333348 0.00666666684 0
0.3600000144 0.00666666684 0
0.346666664 0.00666666684 0
0.3333333432 0.00666666684 0
0.3199999928 0.00666666684 0
0.3066666724 0.00666666684 0
0.293333322 0.00666666684 0
0.2800000012 0.00666666684 0
0.2666666804 0.00666666684 0
0.25333333 0.00666666684 0
0.2399999948 0.00666666684 0
0.226666674 0.00666666684 0
0.2133333384 0.00666666684 0
0.2000000028 0.00666666684 0
0.1866666676 0.00666666684 0
0.173333332 0.00666666684 0
0.1599999964 0.00666666684 0
0.1466666608 0.00666666684 0
0.1333333404 0.00666666684 0
0.1199999972 0.00666666684 0
0.1066666692 0.00666666684 0
0.0933333336 0.00666666684 0
0.0799999984 0.00666666684 0
0.06666667 0.00666666684 0
0.0533333348 0.00666666684 0
0.03999999912 0.00666666684 0
0.02666666732 0.00666666684 0
0.01333333364 0.00666666684 0
0.0 0.00666666684 0
0.400000004 -0.00666666684 0
0.3866666556 -0.00666666684 0
0.3733333348 -0.00666666684 0
0.3600000144 -0.00666666684 0
0.346666664 -0.00666666684 0
0.3333333432 -0.00666666684 0
0.3199999928 -0.00666666684 0
0.3066666724 -0.00666666684 0
0.293333322 -0.00666666684 0
0.2800000012 -0.00666666684 0
0.2666666804 -0.00666666684 0
0.25333333 -0.00666666684 0
0.2399999948 -0.00666666684 0
0.226666674 -0.00666666684 0
0.2133333384 -0.00666666684 0
0.2000000028 -0.00666666684 0
0.1866666676 -0.00666666684 0
0.173333332 -0.00666666684 0
0.1599999964 -0.00666666684 0
0.1466666608 -0.00666666684 0
0.1333333404 -0.00666666684 0
0.1199999972 -0.00666666684 0
0.1066666692 -0.00666666684 0
0.0933333336 -0.00666666684 0
0.0799999984 -0.00666666684 0
0.06666667 -0.00666666684 0
0.0533333348 -0.00666666684 0
0.03999999912 -0.00666666684 0
0.02666666732 -0.00666666684 0
0.01333333364 -0.00666666684 0
0.0 -0.00666666684 0
0.400000004 -0.01999999956 0
0.3866666556 -0.01999999956 0
0.3733333348 -0.01999999956 0
0.3600000144 -0.01999999956 0
0.346666664 -0.01999999956 0
0.3333333432 -0.01999999956 0
0.3199999928 -0.01999999956 0
0.3066666724 -0.01999999956 0
0.293333322 -0.01999999956 0
0.2800000012 -0.01999999956 0
0.2666666804 -0.01999999956 0
0.25333333 -0.01999999956 0
0.2399999948 -0.01999999956 0
0.226666674 -0.01999999956 0
0.2133333384 -0.01999999956 0
0.2000000028 -0.01999999956 0
0.1866666676 -0.01999999956 0
0.173333332 -0.01999999956 0
0.1599999964 -0.01999999956 0
0.1466666608 -0.01999999956 0
0.1333333404 -0.01999999956 0
0.1199999972 -0.01999999956 0
0.1066666692 -0.01999999956 0
0.0933333336 -0.01999999956 0
0.0799999984 -0.01999999956 0
0.06666667 -0.01999999956 0
0.0533333348 -0.01999999956 0
0.03999999912 -0.01999999956 0
0.02666666732 -0.01999999956 0
0.01333333364 -0.01999999956 0
0.0 -0.01999999956 0
0.400000004 -0.03333333508 0
0.3866666556 -0.03333333508 0
0.3733333348 -0.03333333508 0
0.3600000144 -0.03333333508 0
0.346666664 -0.03333333508 0
0.3333333432 -0.03333333508 0
0.3199999928 -0.03333333508 0
0.3066666724 -0.03333333508 0
0.293333322 -0.03333333508 0
0.2800000012 -0.03333333508 0
0.2666666804 -0.03333333508 0
0.25333333 -0.03333333508 0
0.2399999948 -0.03333333508 0
0.226666674 -0.03333333508 0
0.2133333384 -0.03333333508 0
0.2000000028 -0.03333333508 0
0.1866666676 -0.03333333508 0
0.173333332 -0.03333333508 0
0.1599999964 -0.03333333508 0
0.1466666608 -0.03333333508 0
0.1333333404 -0.03333333508 0
0.1199999972 -0.03333333508 0
0.1066666692 -0.03333333508 0
0.0933333336 -0.03333333508 0
0.0799999984 -0.03333333508 0
0.06666667 -0.03333333508 0
0.0533333348 -0.03333333508 0
0.03999999912 -0.03333333508 0
0.02666666732 -0.03333333508 0
0.01333333364 -0.03333333508 0
0.0 -0.03333333508 0
0.400000004 -0.0466666668 0
0.3866666556 -0.0466666668 0
0.3733333348 -0.0466666668 0
0.3600000144 -0.0466666668 0
0.346666664 -0.0466666668 0
0.3333333432 -0.0466666668 0
0.3199999928 -0.0466666668 0
0.3066666724 -0.0466666668 0
0.293333322 -0.0466666668 0
0.2800000012 -0.0466666668 0
0.2666666804 -0.0466666668 0
0.25333333 -0.0466666668 0
0.2399999948 -0.0466666668 0
0.226666674 -0.0466666668 0
0.2133333384 -0.0466666668 0
0.2000000028 -0.0466666668 0
0.1866666676 -0.0466666668 0
0.173333332 -0.0466666668 0
0.1599999964 -0.0466666668 0
0.1466666608 -0.0466666668 0
0.1333333404 -0.0466666668 0
0.1199999972 -0.0466666668 0
0.1066666692 -0.0466666668 0
0.0933333336 -0.0466666668 0
0.0799999984 -0.0466666668 0
0.06666667 -0.0466666668 0
0.0533333348 -0.0466666668 0
0.03999999912 -0.0466666668 0
0.02666666732 -0.0466666668 0
0.01333333364 -0.0466666668 0
0.0 -0.0466666668 0
0.400000004 -0.0599999988 0
0.3866666556 -0.0599999988 0
0.3733333348 -0.0599999988 0
0.3600000144 -0.0599999988 0
0.346666664 -0.0599999988 0
0.3333333432 -0.0599999988 0
0.3199999928 -0.0599999988 0
0.3066666724 -0.0599999988 0
0.293333322 -0.0599999988 0
0.2800000012 -0.0599999988 0
0.2666666804 -0.0599999988 0
0.25333333 -0.0599999988 0
0.2399999948 -0.0599999988 0
0.226666674 -0.0599999988 0
0.2133333384 -0.0599999988 0
0.2000000028 -0.0599999988 0
0.1866666676 -0.0599999988 0
0.173333332 -0.0599999988 0
0.1599999964 -0.0599999988 0
0.1466666608 -0.0599999988 0
0.1333333404 -0.0599999988 0
0.1199999972 -0.0599999988 0
0.1066666692 -0.0599999988 0
0.0933333336 -0.0599999988 0
0.0799999984 -0.0599999988 0
0.06666667 -0.0599999988 0
0.0533333348 -0.0599999988 0
0.03999999912 -0.0599999988 0
0.02666666732 -0.0599999988 0
0.01333333364 -0.0599999988 0
0.0 -0.0599999988 0
0.400000004 -0.0733333304 0
0.3866666556 -0.0733333304 0
0.3733333348 -0.0733333304 0
0.3600000144 -0.0733333304 0
0.346666664 -0.0733333304 0
0.3333333432 -0.0733333304 0
0.3199999928 -0.0733333304 0
0.3066666724 -0.0733333304 0
0.293333322 -0.0733333304 0
0.2800000012 -0.0733333304 0
0.2666666804 -0.0733333304 0
0.25333333 -0.0733333304 0
0.2399999948 -0.0733333304 0
0.226666674 -0.0733333304 0
0.2133333384 -0.0733333304 0
0.2000000028 -0.0733333304 0
0.1866666676 -0.0733333304 0
0.173333332 -0.0733333304 0
0.1599999964 -0.0733333304 0
0.1466666608 -0.0733333304 0
0.1333333404 -0.0733333304 0
0.1199999972 -0.0733333304 0
0.1066666692 -0.0733333304 0
0.0933333336 -0.0733333304 0
0.0799999984 -0.0733333304 0
0.06666667 -0.0733333304 0
0.0533333348 -0.0733333304 0
0.03999999912 -0.0733333304 0
0.02666666732 -0.0733333304 0
0.01333333364 -0.0733333304 0
0.0 -0.0733333304 0
0.400000004 -0.086666666 0
0.3866666556 -0.086666666 0
0.3733333348 -0.086666666 0
0.3600000144 -0.086666666 0
0.346666664 -0.086666666 0
0.3333333432 -0.086666666 0
0.3199999928 -0.086666666 0
0.3066666724 -0.086666666 0
0.293333322 -0.086666666 0
0.2800000012 -0.086666666 0
0.2666666804 -0.086666666 0
0.25333333 -0.086666666 0
0.2399999948 -0.086666666 0
0.226666674 -0.086666666 0
0.2133333384 -0.086666666 0
0.2000000028 -0.086666666 0
0.1866666676 -0.086666666 0
0.173333332 -0.086666666 0
0.1599999964 -0.086666666 0
0.1466666608 -0.086666666 0
0.1333333404 -0.086666666 0
0.1199999972 -0.086666666 0
0.1066666692 -0.086666666 0
0.0933333336 -0.086666666 0
0.0799999984 -0.086666666 0
0.06666667 -0.086666666 0
0.0533333348 -0.086666666 0
0.03999999912 -0.086666666 0
0.02666666732 -0.086666666 0
0.01333333364 -0.086666666 0
0.0 -0.086666666 0
0.400000004 -0.1000000016 0
0.3866666556 -0.1000000016 0
0.3733333348 -0.1000000016 0
0.3600000144 -0.1000000016 0
0.346666664 -0.1000000016 0
0.3333333432 -0.1000000016 0
0.3199999928 -0.1000000016 0
0.3066666724 -0.1000000016 0
0.293333322 -0.1000000016 0
0.2800000012 -0.1000000016 0
0.2666666804 -0.1000000016 0
0.25333333 -0.1000000016 0
0.2399999948 -0.1000000016 0
0.226666674 -0.1000000016 0
0.2133333384 -0.1000000016 0
0.2000000028 -0.1000000016 0
0.1866666676 -0.1000000016 0
0.173333332 -0.1000000016 0
0.1599999964 -0.1000000016 0
0.1466666608 -0.1000000016 0
0.1333333404 -0.1000000016 0
0.1199999972 -0.1000000016 0
0.1066666692 -0.1000000016 0
0.0933333336 -0.1000000016 0
0.0799999984 -0.1000000016 0
0.06666667 -0.1000000016 0
0.0533333348 -0.1000000016 0
0.03999999912 -0.1000000016 0
0.02666666732 -0.1000000016 0
0.01333333364 -0.1000000016 0
0.0 -0.1000000016 0
0.400000004 -0.1133333372 0
0.3866666556 -0.1133333372 0
0.3733333348 -0.1133333372 0
0.3600000144 -0.1133333372 0
0.346666664 -0.1133333372 0
0.3333333432 -0.1133333372 0
0.3199999928 -0.1133333372 0
0.3066666724 -0.1133333372 0
0.293333322 -0.1133333372 0
0.2800000012 -0.1133333372 0
0.2666666804 -0.1133333372 0
0.25333333 -0.1133333372 0
0.2399999948 -0.1133333372 0
0.226666674 -0.1133333372 0
0.2133333384 -0.1133333372 0
0.2000000028 -0.1133333372 0
0.1866666676 -0.1133333372 0
0.173333332 -0.1133333372 0
0.1599999964 -0.1133333372 0
0.1466666608 -0.1133333372 0
0.1333333404 -0.1133333372 0
0.1199999972 -0.1133333372 0
0.1066666692 -0.1133333372 0
0.0933333336 -0.1133333372 0
0.0799999984 -0.1133333372 0
0.06666667 -0.1133333372 0
0.0533333348 -0.1133333372 0
0.03999999912 -0.1133333372 0
0.02666666732 -0.1133333372 0
0.01333333364 -0.1133333372 0
0.0 -0.1133333372 0
0.400000004 -0.1266666652 0
0.3866666556 -0.1266666652 0
0.3733333348 -0.1266666652 0
[...]
POINT_DATA 961
SCALARS Temp float 1
LOOKUP_TABLE default
0.6956388882063095
0.7234229141905275
0.7433617155193145
0.7578591738875126
0.768481574891033
0.7763029555509299
0.7820879633249657
0.7863869621503852
0.7896005292551771
0.7920221723669976
0.7938695023272513
0.7953058482625942
0.796456028078551
0.7974186220719464
0.7982751307488863
0.7990972395633344
0.7999534713620837
0.8009153017008946
0.8020635833219104
0.8034958958790318
0.8053354968181503
0.8077431056587205
0.8109319254429966
0.8151889856617653
0.8209037955683173
0.8286090083426834
0.8390383556490304
0.8532114046939602
0.8725626601624561
0.8991740039169247
0.9363478246071198
0.7342336985131885
0.7614778969431184
0.7812025397364748
0.7956206395070378
0.8062065621668145
0.814012966164535
0.8197934591716663
0.8240931509287257
0.8273098731785524
0.8297357051125892
0.8315875241523766
0.8330283144370925
0.8341827718454756
0.8351494741068628
0.8360099855516817
0.8368360945382871
0.8376964410704976
0.8386626172426604
0.8398155741468406
0.8412529458042388
0.8430979591771736
0.8455111402371207
0.8487052171550015
0.8529662249223691
0.858681747171075
0.8663807687287692
0.8767899723456415
0.8909143545773923
0.9101580834811555
0.9364981075188443
0.9727978801766012
2.541206805863889
2.5452543358413067
2.5565349099612833
2.566938936830545
2.575542160400507
2.582387051149662
2.5877463233851707
2.591914383811651
2.5951523741237565
2.5976770337598696
2.599663714652145
2.601253405376276
2.6025603437728
2.603679136938888
2.6046910976143542
2.6056699098523795
2.6066868982326263
2.607816195558444
2.6091400882674516
2.6107548717376385
2.6127775424498436
2.6153535485917767
2.618665732806529
2.6229441155851996
2.6284749917936674
2.635604676381008
2.6447244882638605
2.6561970259464998
2.6700781562743185
2.6851251674199843
2.6905272065197154
4.325660528466925
4.327869298748914
4.33329044334307
4.340064303768568
4.346486836330849
4.352054888836465
4.356686706395514
4.360460226523513
4.363504345497475
4.3659549079586855
4.367937927467685
4.369564572742334
4.370931380255006
4.372122715565793
4.37321410847471
4.374275910443624
4.375377081387267
4.376589050101114
4.3779896793204705
4.379667345958115
4.381725049618411
4.384284263140077
4.387487682045486
4.39149915649485
4.396496713872791
4.402649847885707
4.410060656042501
4.4186183727853905
4.4276493669324335
4.4348790015081425
4.437824596705027
6.10484403192424
6.10601946364747
6.109196146485886
6.113497220083664
6.118077418226044
6.122380860893175
6.1261787559705
6.129417083724848
6.132126984996372
6.134376204376545
6.136244596413203
6.137812474306344
6.139155852885235
6.140345354239065
6.141447008401741
6.1425240471170195
6.143639209655184
6.144857263798846
6.146247550167699
6.147886325251131
6.149858539481922
6.152258404432367
6.155187465898514
6.1587479401027885
6.163026894074358
6.168063265667817
6.173782942441422
6.179878841694432
6.18560783323561
6.189840907185655
6.191407513528644
7.880847517157333
7.881563383141344
7.883544150380327
7.886380006307259
7.889596645256587
7.892815711180638
7.8958061650636955
7.898463761291003
7.900764412729997
7.902728993942185
7.904401045764612
7.905833821225016
7.907083410478925
7.908205611650361
7.909255007341638
7.910285324660963
7.911350499344814
7.912506025599478
7.913810269660601
7.915325388563166
7.917117356574165
7.919254342281351
7.921802148128368
7.924814771521462
7.928316882555087
7.93227382100414
7.936544524940174
7.9408191073117065
7.944591487466606
7.947227887811999
7.948180943479567
9.654710340594209
9.655166202390427
9.656451370471743
9.658351133957296
9.660597090675859
9.662944096223853
9.665214366928078
9.667303696494358
9.66916708718019
9.670799414310421
9.672219712451152
9.673460294061073
9.67455999501071
9.675560415883323
9.676504141523209
9.677434209689242
9.678394298410623
9.679429202432269
9.680585240301966
9.681910200106072
9.683452323175526
9.685257644982137
9.687364681739837
9.68979521038735
9.692539557917389
9.695535431844041
9.698642043100072
9.701620777260516
9.704143495498382
9.705851312032205
9.706457289031324
11.426890703273658
11.427184245266568
11.428020954244458
11.429283651394874
11.430817565677156
11.432469753971917
11.434116823048107
11.435675749450072
11.437101594282806
11.43837902576333
11.43951304434357
11.440521353838847
11.441428973033123
11.442264838953232
11.443059890168845
11.443846159379975
11.444656472945555
11.445524393892299
11.446484087767818
11.447569764315645
11.448814279373053
11.450246389112333
11.451886004384859
11.453736852068216
11.45577615363067
11.457942099652913
11.460122480817198
11.462151522854757
11.46382431879377
11.464933761338047
11.46532314621072
13.197616201261969
13.197797282775259
13.198317211446378
13.199112656154043
13.200097081436654
13.20118055498881
13.202285601891038
13.203355526548686
13.204355735961684
13.205270618695257
13.206098823643588
13.206848688659997
13.20753463845432
13.20817469421517
13.208788913958996
13.209398514716192
13.210025421577397
13.210691987339482
13.211420647371018
13.212233256593553
13.21314982127322
13.214186309098487
13.215351191063926
13.2166405418305
13.2180318471739
13.219477604740428
13.220901122145685
13.222198204083089
13.223248250361097
13.223935369128249
13.224174805948529
14.966997755560454
14.967092331774438
14.96736538313088
14.967787595676343
14.96831804651204
14.968912835880158
14.969532513394668
14.970146578717925
14.970734911523664
14.97128694060169
14.971799731848039
14.97227586055217
14.97272157965281
14.97314545802427
14.973557457282213
14.973968350406015
14.974389362197561
14.974831897016644
14.975307227532191
14.975826009013936
14.976397472054114
14.977028146995707
14.977719982750003
14.978467860875606
14.979256711276989
14.980058909967024
14.980833153288867
14.981526324105813
14.982079494424964
14.982437811574766
14.982562015342838
16.735088554261658
16.735108355697502
16.73516653804615
16.735259660345083
16.735382664564813
16.73552967282895
16.73569477457485
16.73587263601921
16.73605887219432
16.736250182770128
16.73644432371752
16.736639974926064
16.73683656511828
16.73703409329808
16.737232959586823
16.73743381098611
16.73763740097691
16.737844451590863
16.738055508837657
16.738270781084406
16.738489951969925
16.738711966922605
16.73893479647927
16.739155209277136
16.739368596322294
16.739568929550813
16.73974894657561
16.73990064153622
16.74001608112048
16.740088451416057
16.740113122538844
16.833737506961146
16.83375382207773
16.833801939880207
16.833879508866346
16.83398300985833
16.83410824330749
16.834250837335013
16.8344066736731
16.834572185791014
16.834744509559087
16.834921519087057
16.835101774733282
16.835284422057782
16.835469071121558
16.835655668053157
16.83584436733979
16.836035408486307
16.83622899134751
16.836425146645986
16.83662359723486
16.836823607868077
16.837023828150688
16.837222135912338
16.837415511102154
16.8375999694767
16.837770609081705
16.8379218158016
16.838047657409646
16.838142455039293
16.83820145860806
16.838221498068467
16.932284598629558
16.932298303029484
16.932338838287357
16.932404550175008
16.932492926945493
16.932600906127437
16.932725208341136
16.932862633927222
16.933010291107994
16.933165732308982
16.933327013237076
16.933492683732172
16.93366173373544
16.93383351476333
16.93400764570749
16.934183911491754
16.93436216038389
16.934542197834592
16.934723677113663
16.934905986238263
16.93508813255861
16.93526863194767
16.935445410035666
16.935615739983643
16.93577623475315
16.93592292626517
16.93605145250524
16.93615735966014
16.93623650133075
16.936285482327918
16.93630206923622
17.030734777517583
17.030746477818347
17.030781163819178
17.030837640804382
17.03091407284776
17.031008181021846
17.03111746664615
17.031239418475558
17.03137168362722
17.03151218088918
17.031659163174105
17.031811229076034
17.03196729722084
17.032126557028178
17.032288401494302
17.032452349403336
17.03261796334409
17.03278476336894
17.032952138734647
17.033119259466886
17.03328499084534
17.033447818084017
17.033605787249346
17.03375648127748
17.03389704066305
17.034024248244453
17.034134686001888
17.034224961915992
17.034291990035154
17.034333287411247
17.034347239925662
17.129091763109468
17.1291018919501
17.129131972933454
17.129181121768283
17.129247965622817
17.129330774114784
17.129427611146653
17.129536480507152
17.129655452760012
17.129782755490112
17.12991683053381
17.130056353985296
17.130200226941188
17.130347545976125
17.13049755637402
17.13064959409506
17.13080302259739
17.130957165239813
17.131111236713593
17.131264276280717
17.131415086456624
17.13156218378282
17.13170376595415
17.131837709510037
17.131961602092193
17.132072820929764
17.132168659003685
17.132246493925358
17.132303985917734
17.132339279972832
17.132351182092076
17.227358374181765
17.22736724840849
17.227393640581862
17.227436880620736
17.22749591897818
17.227569414956758
17.227655841625747
17.227753588931435
17.22786105768567
17.227976729825834
17.22809921750548
17.228227285192176
17.2283598494567
17.228495962451277
17.22863478025854
17.228775520757964
17.228917416500686
17.229059663560747
17.229201370068225
17.229341507465286
17.22947886799923
17.229612034108953
17.22973936235313
17.229858992576027
17.229968882879955
17.23006687756194
17.23015080653499
17.230218610826316
17.230268483847425
17.230299011311573
17.230309290587343
17.32238780017959
17.322395655605373
17.32241904390487
17.322457445684584
17.322510041017587
17.322575770050385
17.322653406588266
17.32274163173078
17.322839103628176
17.32294451153887
17.32305661652911
17.323174272639918
17.323296431382865
17.323422133681422
17.32355048922175
17.323680646756678
17.32381176011468
17.32394295077911
17.324073270568423
17.324201667289767
17.32432695643949
17.324447803576348
17.324562718733816
17.3246700710309
17.32476812206967
17.324855082721974
17.3249291906915
17.324988803985622
17.325032502751167
17.325059187623406
17.325068162113435
17.41101035632969
17.411017371895667
17.411038278071256
17.4110726633478
17.411119873547783
17.4111790540805
17.41124920228547
17.411329220482862
17.411417967996435
17.411514302538144
17.41161711337891
17.411725340361226
17.41183798062753
17.41195408601731
17.41207275034042
17.412193089208905
17.412314216461866
17.412435217792073
17.41255512472116
17.41267289142219
17.412787376918004
17.41289733635145
17.413001421754196
17.413098198678878
17.413186176228436
17.413263853656346
17.41332978066304
17.413382627348643
17.413421258403172
17.413444803248517
17.413452713901766
17.493194948469412
17.493201264343224
17.49322009857441
17.493251118078604
17.493293790023262
17.493347411724443
17.493411148400625
17.493484071753794
17.493565199052547
17.493653524816732
17.493748047678373
17.493847786937486
17.493951790164058
17.494059134081738
17.494168917498943
17.494280248317942
17.494392228018146
17.49450393392415
17.49461440195048
17.494722611884676
17.494827477200644
17.49492784231957
17.495022487093177
17.495110143610532
17.495189522370435
17.495259350202108
17.49531841719046
17.495365629384985
17.49540006345273
17.495421017410095
17.49542805192369
17.568912682355382
17.568918410744867
17.56893550245821
17.568963682210363
17.56900250716196
17.569051388373097
17.569109618422083
17.56917639975347
17.569250874325533
17.569332147969636
17.569419312163838
17.569511458261704
17.56960768525637
17.56970710286966
17.56980882849425
17.56991197953367
17.57001566399564
17.570118969366934
17.57022095201488
17.570320628753016
17.57041697208827
17.570508911442285
17.570595339688683
17.570675129213562
17.570747154376086
17.57081032231344
17.570863609628077
17.57090610244496
17.570937037147495
17.57095583758417
17.57096214500744
17.63813682037307
17.638142053027828
17.638157672371193
17.638183446246284
17.63821899934141
17.63826382880601
17.63831732475947
17.63837879136239
17.638447469580033
17.63852255605729
17.6386032208876
17.638688619816506
17.638777901822518
17.63887021358066
17.63896469922656
17.639060496607016
17.6391567324264
17.639252516076994
17.63934693399744
17.639439045822556
17.63952788344717
17.639612454808415
17.639691751454038
17.63976476346287
17.63983049860891
17.639888007466745
17.639936412311435
17.63997493787512
17.640002942095883
17.64001994379492
17.640025644714544
17.700842765897313
17.700847579401902
17.70086195245534
17.700885685429125
17.70091845420173
17.700959821697726
17.701009253367914
17.701066133061477
17.701129780761928
17.701199467380082
17.7012744294184
17.70135387949376
17.701437013589512
17.701523016356113
17.701611062843416
17.701700317585818
17.701789933089202
17.701879047316055
17.7019667816725
17.7020522404488
17.702134512520374
17.70221267673906
17.70228580991746
17.702353000505553
17.702413364955817
17.702466068331198
17.702510347304276
17.702545534060828
17.70257107983427
17.70258657580428
17.70259176957677
17.757008440735653
17.757012900303817
17.757026220019586
17.757048225001093
17.757078630251165
17.757117049326688
17.757163006238496
17.757215947595633
17.757275256666155
17.757340265144922
17.75741026543685
17.75748451982463
17.757562267352746
17.757642729618816
17.75772511386426
17.75780861409014
17.757892411958824
17.757975676933146
17.75805756687773
17.758137229823767
17.758213807459768
17.75828644149327
17.75835428169557
17.758416498381795
17.75847229646639
17.758520932558284
17.758561733501082
17.75859411521612
17.758617600997272
17.75863183754978
17.75863660752312
17.80661359412509
17.806617756370283
17.806630190585963
17.806650740824967
17.80667915215115
17.80671507727762
17.806758085906015
17.806807674191877
17.806863276118715
17.80692427303254
17.806990004114063
17.807059774475707
17.807132861691446
17.80720852185792
17.807285993610694
17.80736450067652
17.807443254495595
17.807521456258772
17.807598299363185
17.807672972791732
17.80774466579335
17.80781257479509
17.80787591131478
17.807933913364888
17.807985857640467
17.808031073893517
17.80806896011249
17.808098997625237
17.808120765573893
17.80813395345016
17.80813837080498
17.849640752180825
17.84964466716675
17.849656364552605
17.849675702900697
17.849702450396773
17.849736290046714
17.849776827181163
17.8498235969962
17.849876073966726
17.849933679740268
17.84999579224301
17.850061752944207
17.85013087307035
17.850202439798228
17.850275720891503
17.850349968255735
17.850424421767496
17.850498312648394
17.850570867214756
17.850641311358725
17.850708876000148
17.850772804280048
17.85083235925086
17.850886834354473
17.850935564125724
17.850977936477822
17.851013405359712
17.851041503098077
17.851061852085014
17.851074174780646
17.851078301395944
17.886074353897406
17.886078066693738
17.88608916127778
17.886107507276122
17.88613289056415
17.886165017441574
17.886203520825916
17.88624796641608
17.886297860682564
17.886352657565862
17.88641176656238
17.886474559352315
17.886540375746335
17.886608529927887
17.886678315497612
17.88674900971692
17.886819878169458
17.88689017906072
17.88695916785442
17.88702610249057
17.88709024932296
17.88715089042943
17.88720733105262
17.8872589093103
17.887305005740192
17.887345054000512
17.887378551649594
17.887405070461295
17.887424266086093
17.887435886227003
17.887439776868785
17.915901476171584
17.915905028053537
17.91591564272031
17.915933198109645
17.91595749342222
17.915988252580277
17.916025129493796
17.916067713249866
17.916115535083346
17.916168074216497
17.916224765196695
17.916285004048053
17.91634815400177
17.91641355174153
17.916480512709725
17.91654833581433
17.916616308652234
17.91668371243631
17.916749827226433
17.916813937628643
17.916875339027346
17.91693334491911
17.916987294115984
17.91703655984275
17.917080558399494
17.91711875868221
17.917150691586418
17.91717595885477
17.917194241281845
17.917205305586094
17.917209009606427
17.939111487090305
17.93911491649284
17.93912516577366
17.939142118913384
17.939165584823144
17.939195300312225
17.939230934714637
17.93927209440674
17.939318329067454
17.939369136918614
17.939423971531028
17.939482247632306
17.93954334667141
17.93960662304615
17.93967140957163
17.93973702248971
17.9398027670602
17.939867942900225
17.93993184960189
17.939993792735308
17.940053090251958
17.94010907979666
17.940161125709338
17.9402086276565
17.940251028647896
17.94028782370787
17.940318568301716
17.94034288615006
17.94036047641535
17.94037111966668
17.940374682360925
17.955695971107204
17.95569931440668
17.95570930677164
17.955725836288686
17.95574871847844
17.95577769894517
17.95581245758668
17.955852612675216
17.955897726650914
17.95594731096904
17.95600083255141
17.95605771936274
17.956117365858294
17.956179139188592
17.95624238476304
17.956306431446396
17.95637059737755
17.95643419556508
17.956496539742666
17.956556950553804
17.956614762048442
17.956669328959862
17.956720033554706
17.956766293938458
17.9568075716317
17.956843379670147
17.956873290379516
17.956896942506567
17.956914047734863
17.95692439605478
17.956927859776712
17.96564906090467
17.965652353080856
17.965662192884373
17.965678470785463
17.965701006146247
17.96572954969178
17.965763787485304
17.965803344763046
17.965847791463624
17.96589664685211
17.965949385768916
17.966005444072408
17.966064224017074
17.966125100440937
17.966187426378383
17.966250538357666
17.96631376234268
17.96637641946756
17.966437832020024
17.966497329721584
17.966554256269127
17.96660797658342
17.9666578835655
17.96670340620931
17.966744016921865
17.966779239294127
17.966808655503087
17.966831913053284
17.96684873091185
17.966858904541535
17.966862309649503
17.968967143881926
17.968970419105467
17.968980208316076
17.96899640276563
17.96901882307663
17.969047221655803
17.969081286593525
17.969120645419217
17.96916487054521
17.96921348381865
17.969265962704448
17.969321745684024
17.969380237610697
17.969440815890554
17.969502836110475
17.96956563736748
17.969628548249297
17.969690892612995
17.969751995608412
17.96981118998819
17.969867822662447
17.969921261936697
17.96997090423667
17.97001618215698
17.970056571697437
17.970091599926405
17.970120852261463
17.970143979084508
17.970160701753322
17.970170817525524
17.970174203221855
