# vtk DataFile Version 2.0
Unstructured Grid Example
ASCII
DATASET UNSTRUCTURED_GRID

POINTS 961 float
0.400000004 0.01999999956 0
0.3866666556 0.01999999956 0
0.3733333348 0.01999999956 0
0.3600000144 0.01999999956 0
0.346666664 0.01999999956 0
0.3333333432 0.01999999956 0
0.3199999928 0.01999999956 0
0.3066666724 0.01999999956 0
0.293333322 0.01999999956 0
0.2800000012 0.01999999956 0
0.2666666804 0.01999999956 0
0.25333333 0.01999999956 0
0.2399999948 0.01999999956 0
0.226666674 0.01999999956 0
0.2133333384 0.01999999956 0
0.2000000028 0.01999999956 0
0.1866666676 0.01999999956 0
0.173333332 0.01999999956 0
0.1599999964 0.01999999956 0
0.1466666608 0.01999999956 0
0.1333333404 0.01999999956 0
0.1199999972 0.01999999956 0
0.1066666692 0.01999999956 0
0.0933333336 0.01999999956 0
0.0799999984 0.01999999956 0
0.06666667 0.01999999956 0
0.0533333348 0.01999999956 0
0.03999999912 0.01999999956 0
0.02666666732 0.01999999956 0
0.01333333364 0.01999999956 0
0.0 0.01999999956 0
0.400000004 0.00666666684 0
0.3866666556 0.00666666684 0
0.3733333348 0.00666666684 0
0.3600000144 0.00666666684 0
0.346666664 0.00666666684 0
0.3333333432 0.00666666684 0
0.3199999928 0.00666666684 0
0.3066666724 0.00666666684 0
0.293333322 0.00666666684 0
0.2800000012 0.00666666684 0
0.2666666804 0.00666666684 0
0.25333333 0.00666666684 0
0.2399999948 0.00666666684 0
0.226666674 0.00666666684 0
0.2133333384 0.00666666684 0
0.2000000028 0.00666666684 0
0.1866666676 0.00666666684 0
0.173333332 0.00666666684 0
0.1599999964 0.00666666684 0
0.1466666608 0.00666666684 0
0.1333333404 0.00666666684 0
0.1199999972 0.00666666684 0
0.1066666692 0.00666666684 0
0.0933333336 0.00666666684 0
0.0799999984 0.00666666684 0
0.06666667 0.00666666684 0
0.0533333348 0.00666666684 0
0.03999999912 0.00666666684 0
0.02666666732 0.00666666684 0
0.01333333364 0.00666666684 0
0.0 0.00666666684 0
0.400000004 -0.00666666684 0
0.3866666556 -0.00666666684 0
0.3733333348 -0.00666666684 0
0.3600000144 -0.00666666684 0
0.346666664 -0.00666666684 0
0.3333333432 -0.00666666684 0
0.3199999928 -0.00666666684 0
0.3066666724 -0.00666666684 0
0.293333322 -0.00666666684 0
0.2800000012 -0.00666666684 0
0.2666666804 -0.00666666684 0
0.25333333 -0.00666666684 0
0.2399999948 -0.00666666684 0
0.226666674 -0.00666666684 0
0.2133333384 -0.00666666684 0
0.2000000028 -0.00666666684 0
0.1866666676 -0.00666666684 0
0.173333332 -0.00666666684 0
0.1599999964 -0.00666666684 0
0.1466666608 -0.00666666684 0
0.1333333404 -0.00666666684 0
0.1199999972 -0.00666666684 0
0.1066666692 -0.00666666684 0
0.0933333336 -0.00666666684 0
0.0799999984 -0.00666666684 0
0.06666667 -0.00666666684 0
0.0533333348 -0.00666666684 0
0.03999999912 -0.00666666684 0
0.02666666732 -0.00666666684 0
0.01333333364 -0.00666666684 0
0.0 -0.00666666684 0
0.400000004 -0.01999999956 0
0.3866666556 -0.01999999956 0
0.3733333348 -0.01999999956 0
0.3600000144 -0.01999999956 0
0.346666664 -0.01999999956 0
0.3333333432 -0.01999999956 0
0.3199999928 -0.01999999956 0
0.3066666724 -0.01999999956 0
0.293333322 -0.01999999956 0
0.2800000012 -0.01999999956 0
0.2666666804 -0.01999999956 0
0.25333333 -0.01999999956 0
0.2399999948 -0.01999999956 0
0.226666674 -0.01999999956 0
0.2133333384 -0.01999999956 0
0.2000000028 -0.01999999956 0
0.1866666676 -0.01999999956 0
0.173333332 -0.01999999956 0
0.1599999964 -0.01999999956 0
0.1466666608 -0.01999999956 0
0.1333333404 -0.01999999956 0
0.1199999972 -0.01999999956 0
0.1066666692 -0.01999999956 0
0.0933333336 -0.01999999956 0
0.0799999984 -0.01999999956 0
0.06666667 -0.01999999956 0
0.0533333348 -0.01999999956 0
0.03999999912 -0.01999999956 0
0.02666666732 -0.01999999956 0
0.01333333364 -0.01999999956 0
0.0 -0.01999999956 0
0.400000004 -0.03333333508 0
0.3866666556 -0.03333333508 0
0.3733333348 -0.03333333508 0
0.3600000144 -0.03333333508 0
0.346666664 -0.03333333508 0
0.3333333432 -0.03333333508 0
0.3199999928 -0.03333333508 0
0.3066666724 -0.03333333508 0
0.293333322 -0.03333333508 0
0.2800000012 -0.03333333508 0
0.2666666804 -0.03333333508 0
0.25333333 -0.03333333508 0
0.2399999948 -0.03333333508 0
0.226666674 -0.03333333508 0
0.2133333384 -0.03333333508 0
0.2000000028 -0.03333333508 0
0.1866666676 -0.03333333508 0
0.173333332 -0.03333333508 0
0.1599999964 -0.03333333508 0
0.1466666608 -0.03333333508 0
0.1333333404 -0.03333333508 0
0.1199999972 -0.03333333508 0
0.1066666692 -0.03333333508 0
0.0933333336 -0.03333333508 0
0.0799999984 -0.03333333508 0
0.06666667 -0.03333333508 0
0.0533333348 -0.03333333508 0
0.03999999912 -0.03333333508 0
0.02666666732 -0.03333333508 0
0.01333333364 -0.03333333508 0
0.0 -0.03333333508 0
0.400000004 -0.0466666668 0
0.3866666556 -0.0466666668 0
0.3733333348 -0.0466666668 0
0.3600000144 -0.0466666668 0
0.346666664 -0.0466666668 0
0.3333333432 -0.0466666668 0
0.3199999928 -0.0466666668 0
0.3066666724 -0.0466666668 0
0.293333322 -0.0466666668 0
0.2800000012 -0.0466666668 0
0.2666666804 -0.0466666668 0
0.25333333 -0.0466666668 0
0.2399999948 -0.0466666668 0
0.226666674 -0.0466666668 0
0.2133333384 -0.0466666668 0
0.2000000028 -0.0466666668 0
0.1866666676 -0.0466666668 0
0.173333332 -0.0466666668 0
0.1599999964 -0.0466666668 0
0.1466666608 -0.0466666668 0
0.1333333404 -0.0466666668 0
0.1199999972 -0.0466666668 0
0.1066666692 -0.0466666668 0
0.0933333336 -0.0466666668 0
0.0799999984 -0.0466666668 0
0.06666667 -0.0466666668 0
0.0533333348 -0.0466666668 0
0.03999999912 -0.0466666668 0
0.02666666732 -0.0466666668 0
0.01333333364 -0.0466666668 0
0.0 -0.0466666668 0
0.400000004 -0.0599999988 0
0.3866666556 -0.0599999988 0
0.3733333348 -0.0599999988 0
0.3600000144 -0.0599999988 0
0.346666664 -0.0599999988 0
0.3333333432 -0.0599999988 0
0.3199999928 -0.0599999988 0
0.3066666724 -0.0599999988 0
0.293333322 -0.0599999988 0
0.2800000012 -0.0599999988 0
0.2666666804 -0.0599999988 0
0.25333333 -0.0599999988 0
0.2399999948 -0.0599999988 0
0.226666674 -0.0599999988 0
0.2133333384 -0.0599999988 0
0.2000000028 -0.0599999988 0
0.1866666676 -0.0599999988 0
0.173333332 -0.0599999988 0
0.1599999964 -0.0599999988 0
0.1466666608 -0.0599999988 0
0.1333333404 -0.0599999988 0
0.1199999972 -0.0599999988 0
0.1066666692 -0.0599999988 0
0.0933333336 -0.0599999988 0
0.0799999984 -0.0599999988 0
0.06666667 -0.0599999988 0
0.0533333348 -0.0599999988 0
0.03999999912 -0.0599999988 0
0.02666666732 -0.0599999988 0
0.01333333364 -0.0599999988 0
0.0 -0.0599999988 0
0.400000004 -0.0733333304 0
0.3866666556 -0.0733333304 0
0.3733333348 -0.0733333304 0
0.3600000144 -0.0733333304 0
0.346666664 -0.0733333304 0
0.3333333432 -0.0733333304 0
0.3199999928 -0.0733333304 0
0.3066666724 -0.0733333304 0
0.293333322 -0.0733333304 0
0.2800000012 -0.0733333304 0
0.2666666804 -0.0733333304 0
0.25333333 -0.0733333304 0
0.2399999948 -0.0733333304 0
0.226666674 -0.0733333304 0
0.2133333384 -0.0733333304 0
0.2000000028 -0.0733333304 0
0.1866666676 -0.0733333304 0
0.173333332 -0.0733333304 0
0.1599999964 -0.0733333304 0
0.1466666608 -0.0733333304 0
0.1333333404 -0.0733333304 0
0.1199999972 -0.0733333304 0
0.1066666692 -0.0733333304 0
0.0933333336 -0.0733333304 0
0.0799999984 -0.0733333304 0
0.06666667 -0.0733333304 0
0.0533333348 -0.0733333304 0
0.03999999912 -0.0733333304 0
0.02666666732 -0.0733333304 0
0.01333333364 -0.0733333304 0
0.0 -0.0733333304 0
0.400000004 -0.086666666 0
0.3866666556 -0.086666666 0
0.3733333348 -0.086666666 0
0.3600000144 -0.086666666 0
0.346666664 -0.086666666 0
0.3333333432 -0.086666666 0
0.3199999928 -0.086666666 0
0.3066666724 -0.086666666 0
0.293333322 -0.086666666 0
0.2800000012 -0.086666666 0
0.2666666804 -0.086666666 0
0.25333333 -0.086666666 0
0.2399999948 -0.086666666 0
0.226666674 -0.086666666 0
0.2133333384 -0.086666666 0
0.2000000028 -0.086666666 0
0.1866666676 -0.086666666 0
0.173333332 -0.086666666 0
0.1599999964 -0.086666666 0
0.1466666608 -0.086666666 0
0.1333333404 -0.086666666 0
0.1199999972 -0.086666666 0
0.1066666692 -0.086666666 0
0.0933333336 -0.086666666 0
0.0799999984 -0.086666666 0
0.06666667 -0.086666666 0
0.0533333348 -0.086666666 0
0.03999999912 -0.086666666 0
0.02666666732 -0.086666666 0
0.01333333364 -0.086666666 0
0.0 -0.086666666 0
0.400000004 -0.1000000016 0
0.3866666556 -0.1000000016 0
0.3733333348 -0.1000000016 0
0.3600000144 -0.1000000016 0
0.346666664 -0.1000000016 0
0.3333333432 -0.1000000016 0
0.3199999928 -0.1000000016 0
0.3066666724 -0.1000000016 0
0.293333322 -0.1000000016 0
0.2800000012 -0.1000000016 0
0.2666666804 -0.1000000016 0
0.25333333 -0.1000000016 0
0.2399999948 -0.1000000016 0
0.226666674 -0.1000000016 0
0.2133333384 -0.1000000016 0
0.2000000028 -0.1000000016 0
0.1866666676 -0.1000000016 0
0.173333332 -0.1000000016 0
0.1599999964 -0.1000000016 0
0.1466666608 -0.1000000016 0
0.1333333404 -0.1000000016 0
0.1199999972 -0.1000000016 0
0.1066666692 -0.1000000016 0
0.0933333336 -0.1000000016 0
0.0799999984 -0.1000000016 0
0.06666667 -0.1000000016 0
0.0533333348 -0.1000000016 0
0.03999999912 -0.1000000016 0
0.02666666732 -0.1000000016 0
0.01333333364 -0.1000000016 0
0.0 -0.1000000016 0
0.400000004 -0.1133333372 0
0.3866666556 -0.1133333372 0
0.3733333348 -0.1133333372 0
0.3600000144 -0.1133333372 0
0.346666664 -0.1133333372 0
0.3333333432 -0.1133333372 0
0.3199999928 -0.1133333372 0
0.3066666724 -0.1133333372 0
0.293333322 -0.1133333372 0
0.2800000012 -0.1133333372 0
0.2666666804 -0.1133333372 0
0.25333333 -0.1133333372 0
0.2399999948 -0.1133333372 0
0.226666674 -0.1133333372 0
0.2133333384 -0.1133333372 0
0.2000000028 -0.1133333372 0
0.1866666676 -0.1133333372 0
0.173333332 -0.1133333372 0
0.1599999964 -0.1133333372 0
0.1466666608 -0.1133333372 0
0.1333333404 -0.1133333372 0
0.1199999972 -0.1133333372 0
0.1066666692 -0.1133333372 0
0.0933333336 -0.1133333372 0
0.0799999984 -0.1133333372 0
0.06666667 -0.1133333372 0
0.0533333348 -0.1133333372 0
0.03999999912 -0.1133333372 0
0.02666666732 -0.1133333372 0
0.01333333364 -0.1133333372 0
0.0 -0.1133333372 0
0.400000004 -0.1266666652 0
0.3866666556 -0.1266666652 0
0.3733333348 -0.1266666652 0
[...]
POINT_DATA 961
SCALARS Temp float 1
LOOKUP_TABLE default
0.7148407084504971
0.7433916659521697
0.763880856043817
0.7787785146776791
0.7896941613714631
0.7977314794572303
0.8036762225427889
0.8080939457660952
0.8113962829155423
0.8138848427657641
0.815783242157814
0.8172593178228075
0.8184413321984713
0.8194305858431514
0.8203108280505199
0.8211557221310717
0.8220356815017235
0.8230241538214774
0.82420422282461
0.8256761609445327
0.8275666272930279
0.8300407772575777
0.8333176986271473
0.8376923436995521
0.8435649735777955
0.8514829448747476
0.8622002435569794
0.8767645817201437
0.8966500633790719
0.9239960406537839
0.9621960648090137
0.7545008440501315
0.7824970731556611
0.8027661939371582
0.8175823045255606
0.8284604674865084
0.8364823974459551
0.8424225034714082
0.8468409414460036
0.8501465238592651
0.8526393914841806
0.8545424074606744
0.8560230539702395
0.8572094680136604
0.8582029474671399
0.8590873071651632
0.8599363161168265
0.8608205080831911
0.8618134504318711
0.8629983279154699
0.8644754687899323
0.8663715007978214
0.8688513803934783
0.8721337073456723
0.8765124119623907
0.8823857765337735
0.890297388023691
0.9009939888703734
0.915508318268471
0.9352833061323879
0.9623504744638706
0.9996523222090545
2.6113514698416234
2.615510740135731
2.6271027406137026
2.637794029071081
2.6466348360937575
2.6536688032071734
2.6591761709485295
2.663459470767521
2.666787050636627
2.669381630395238
2.6714233997407684
2.6730572362912666
2.6744005283664025
2.6755504915479125
2.6765906800044466
2.6775968085881576
2.6786421675350742
2.679802932847605
2.6811636592976216
2.682823297401204
2.684902070350456
2.687549438605566
2.6909532895344315
2.6953499909040533
2.701033738535428
2.708360405424483
2.7177321111031607
2.729521462062542
2.7437858658876575
2.7592483039161864
2.7647994846329214
4.445061066332764
4.447330831980289
4.452901695982769
4.459862666510037
4.466462661402194
4.472184637839582
4.476944581696818
4.4808225787905585
4.4839510798802635
4.486469675474702
4.488507853266815
4.490179846019155
4.491584850076389
4.4928095546967555
4.493931569321882
4.4950231820124475
4.496155250830848
4.497401170892234
4.498840948935956
4.5005653962548315
4.502680350679434
4.505310633469947
4.508602874708427
4.512725443421942
4.517861277589514
4.524184546328384
4.531800162477243
4.540594300077707
4.549874729885
4.557304020995416
4.560330957170628
6.273354905565455
6.2745628200999555
6.2778273005500385
6.282247281201345
6.286954161771178
6.291376715368119
6.29527983093232
6.298607993361699
6.301393198189789
6.303705054487285
6.305625615027667
6.3072374034325405
6.30861852590687
6.309841546743068
6.31097431118691
6.312081788795869
6.313228442992363
6.314480821723034
6.315910172101686
6.3175948482025435
6.3196221382956885
6.322088847778891
6.325099319133082
6.32875858423964
6.333156108108953
6.338331898527986
6.3442097928129435
6.350474227452017
6.356361554896339
6.3607115963204
6.362321486867591
8.098380859810282
8.099116534299611
8.10115212146353
8.10406649501308
8.107372254305927
8.110680595820128
8.11375409852262
8.116485633768331
8.118850443181918
8.120869970387059
8.122588950251902
8.124062097312475
8.125347041023879
8.126501110332262
8.12758038479655
8.12864006465662
8.129735564442873
8.130923900188087
8.132265039355936
8.133822845080328
8.135665103430314
8.137861855801361
8.140480712643601
8.143577154100353
8.147176524100338
8.151243199181001
8.1556322177485
8.16002513349603
8.163901891469576
8.16661121566373
8.167590629321358
9.921206950042103
9.921675454967644
9.92299627679799
9.924948775980841
9.927257138337373
9.929669448192987
9.932003008781304
9.934150730548257
9.936066365787507
9.93774463951019
9.939205101977052
9.940480947092151
9.941612071585853
9.942641212695007
9.943612118692792
9.944569003002057
9.945556736863251
9.946621339067047
9.947810394414283
9.94917299808703
9.95075871142816
9.952614829562224
9.954780921427673
9.957279355359004
9.960100182419149
9.963179382570837
9.966372273313173
9.969433647402951
9.972026303033134
9.973781443916808
9.974404209175564
11.742303999882065
11.742605716521089
11.74346573639788
11.744763643831263
11.746340391704143
11.74803880977411
11.74973209192454
11.751334914780722
11.752801089520624
11.754114850511158
11.75528132454679
11.756318691519683
11.757252647419007
11.758112914002472
11.758931269342437
11.759740615517856
11.760574670017377
11.761467907337828
11.76245542129747
11.763572351459699
11.764852446591682
11.766325243265836
11.768011189331315
11.769914102822806
11.77201056571627
11.774237052798526
11.77647824891564
11.778563796638519
11.780283127000994
11.781423411478627
11.781823617519398
13.561905862232939
13.562092026777957
13.562626560023585
13.563444379935051
13.564456557810972
13.565570672575515
13.566707102715895
13.567807578009559
13.568836539442675
13.569777932135118
13.570630353937794
13.571402358022725
13.572108751504791
13.572768036507123
13.573400807638805
13.574028850129059
13.574674676623822
13.57536123928452
13.57611157531878
13.576948125849595
13.57789143288203
13.578957889114324
13.58015618451676
13.581482271610978
13.582913002111166
13.584399551166587
13.585863099588988
13.587196567639719
13.588276019526278
13.588982359540735
13.5892284907747
15.380126493927204
15.380223778701337
15.380504659936879
15.380939011313451
15.381484775023614
15.382096832184486
15.382734634148669
15.383366827501312
15.383972723635583
15.384541445042698
15.38506996070338
15.385560899810361
15.386020669640297
15.386458056467145
15.386883277093176
15.387307381630203
15.387741884263288
15.388198483692763
15.388688743517086
15.389223593337931
15.389812499411189
15.390462154080009
15.391174542845288
15.391944390024078
15.392756194989499
15.39358155826034
15.394378024788436
15.395091001786048
15.39565992716035
15.396028428685748
15.396156159136703
17.197020524774587
17.19704098490603
17.197101108382554
17.197197355589395
17.197324522808213
17.197476561502107
17.19764738730967
17.19783150643327
17.198024398105435
17.198222654297737
17.19842395080641
17.198626911406762
17.198830928138275
17.199035978070068
17.199242449706045
17.19945098472688
17.199662333976388
17.19987721598013
17.20009616863821
17.200319383397353
17.20054651324679
17.200776453592596
17.20100709925401
17.201235111423223
17.201455737270603
17.201662767548356
17.201848726600726
17.20200537690075
17.2021245577179
17.202199260960942
17.202224725261843
17.29839228768866
17.29840916669175
17.29845895206625
17.298539223683687
17.298646359077537
17.29877603425904
17.298923745887947
17.29908524907182
17.299256863883993
17.299435630325913
17.299619345361748
17.299806509685794
17.299996224092602
17.30018806569334
17.30038195617876
17.300578030824767
17.30077651201297
17.300977581379502
17.301181247018214
17.301387201171018
17.301594666100417
17.301802232957264
17.30200770104436
17.302207948467714
17.302398864184095
17.302575395954918
17.302731761735316
17.302861854740797
17.302959830815105
17.303020802593075
17.303041508796383
17.399659148974443
17.399673347851948
17.39971534931588
17.39978344967193
17.399875061549036
17.39998702922353
17.40011597175863
17.40025858792405
17.400411890821903
17.400573348113838
17.40074094294181
17.400913164725022
17.401088953847836
17.40126762122083
17.401448751727692
17.40163210033008
17.401817486817233
17.402004686978437
17.402193320485985
17.402382734965556
17.402571887651117
17.402759231774468
17.402942615292222
17.40311921718462
17.40328553970655
17.403437489925018
17.40357057215859
17.403680198596412
17.40376209965516
17.403812780121783
17.40382994111937
17.500826188200993
17.500838331574496
17.500874334024374
17.500932963924715
17.5010123281681
17.501110075909416
17.501223628089164
17.501350390447364
17.501487929340794
17.501634088326718
17.50178705255961
17.501945360871296
17.502107879631684
17.502273752414737
17.502442331181413
17.502613096597287
17.50278557406792
17.50295924528726
17.503133457816777
17.503307334481104
17.503479685756332
17.503648932638672
17.503813046157887
17.503969522983766
17.504115406887347
17.504247376066562
17.50436190444762
17.50445549495272
17.504524967426462
17.50456776386758
17.504582221663732
17.601897219762193
17.601907753514844
17.601939039426725
17.601990164694314
17.602059711805133
17.602145893209563
17.60224670746477
17.602360088966428
17.602484038519606
17.602616716229836
17.60275650054171
17.6029020090108
17.60305208902047
17.603205787717066
17.603362304216894
17.603520930235845
17.603680985461047
17.60384174837227
17.60400238606759
17.60416188594295
17.604318992957456
17.604472159326356
17.604619510976942
17.604758845438248
17.60488766519935
17.605003258569614
17.605102829508382
17.605183671318493
17.60524337022598
17.605280013221485
17.605292369239375
17.702875129907024
17.702884380989474
17.702911895921538
17.702956981807507
17.703018552987523
17.70309522186014
17.703185406819337
17.703287438327905
17.703399655689367
17.703520479409335
17.703648461881595
17.703782310320495
17.703920886783905
17.704063191484448
17.704208330545327
17.704355472982336
17.70450380258701
17.704652465665728
17.704800518453737
17.70494687732481
17.70509027540066
17.705229231386177
17.705362033302485
17.70548674818179
17.70560125822631
17.70570333083992
17.70579072098599
17.705861300311003
17.705913202454706
17.705944966938677
17.705955661892233
17.80052621331385
17.800534424557252
17.800558873873452
17.800599022982016
17.800654021797875
17.800722770784358
17.800803996700097
17.800896328390287
17.80099836866771
17.801108750032988
17.801226176751094
17.801349446839048
17.80147745693834
17.80160919433829
17.801743716052613
17.801880118597055
17.802017503386068
17.802154938594825
17.802291421127126
17.80242584163612
17.80255695574891
17.802683366262933
17.80280351766582
17.80291571144047
17.80301814061748
17.803108948360798
17.80318630787328
17.80324851861849
17.803294111115438
17.80332194811707
17.803331309353606
17.891593277611715
17.89160063249788
17.891622551158548
17.891658605957282
17.891708116771763
17.89177019449259
17.8918437949481
17.891927773548336
17.892020938952587
17.8921220957752
17.89223007893749
17.892343773453064
17.892462121606524
17.892584120597935
17.89270880977466
17.892835250214148
17.89296250083958
17.89308959164944
17.89321549730752
17.89333911365606
17.893459239742768
17.8935745691746
17.89368369118236
17.89378510801686
17.893877266051366
17.89395860391072
17.89402761464442
17.894082917788165
17.894123335757005
17.894147966043676
17.89415624076478
17.976044397844632
17.976051039992637
17.976070848251183
17.976103475367758
17.97614836557527
17.976204785394042
17.976271862570307
17.97634862585682
17.976434045392462
17.976527065447954
17.97662663230517
17.976731711528547
17.976841296052854
17.97695440742416
17.977070088859126
17.977187392216226
17.977305362407087
17.977423019520256
17.97753934143713
17.97765324905346
17.977763596145333
17.97786916689299
17.977968680774293
17.97806081015337
17.97814420743029
17.97821754426144
17.978279560001436
17.978329116052514
17.978365252187768
17.978387238808615
17.978394619475
18.05384992470944
18.053855968989073
18.053874004063992
18.053903741885602
18.05394471884837
18.053996317918916
18.054057797165065
18.05412831902612
18.05420698100476
18.054292840892373
18.054384939431273
18.05448231520477
18.0545840129021
18.054689086838497
18.05479659814858
18.054905607248088
18.055015164537483
18.05512429932828
18.055232009312792
18.05533725225488
18.05543894145257
18.055535947344666
18.05562710452586
18.055711228580787
18.05578713942913
18.055853693243566
18.055909820379572
18.05595456673102
18.055987135758386
18.05600692685247
18.056013566192483
18.124982438339245
18.12498797858095
18.125004516726797
18.125031808870755
18.125069460507696
18.125116942666363
18.12517361313721
18.125238738269868
18.125311516598657
18.125391098438712
18.12547660444279
18.12556713841933
18.12566179541883
18.12575966667817
18.12585983972521
18.125961394870405
18.126063400601808
18.12616490761584
18.126264943393213
18.1263625086125
18.12645657654673
18.12654609731353
18.126630005960017
18.126707238136518
18.12677675006325
18.126837544600395
18.126888701183365
18.126929407627564
18.126958991899635
18.126976950693013
18.126982972170218
18.18941672991032
18.18942184434585
18.189437116488
18.18946233569618
18.189497159802485
18.189541127057797
18.18959367219684
18.1896541428973
18.189721818246056
18.189795924146768
18.18987564869523
18.189960153278673
18.190048580333197
18.190140059158985
18.19023370805795
18.190328633748507
18.19042393020488
18.190518676454708
18.190611934894925
18.19070275109813
18.19079015592979
18.19087317146291
18.190950819499594
18.191022135976866
18.191086188065448
18.19114209562637
18.191189055089772
18.191226364223496
18.191253446495896
18.191269872689887
18.19127537793655
18.24713018667424
18.247134941837036
18.247149144817868
18.247172610260783
18.2472050359622
18.247246011870427
18.247295032475684
18.24735150944249
18.24741478630559
18.247484150774163
18.24755884766863
18.247638088634925
18.247721059531802
18.24780692676
18.247894840805227
18.247983937748973
18.248073340599728
18.2481621598278
18.24824949437796
18.2483344338742
18.248416062585886
18.248493466349522
18.24856574116075
18.248632006359866
18.248691419364697
18.248743193524728
18.248786617424383
18.24882107445677
18.24884606180704
18.248861207075983
18.24886628126028
18.298102078729904
18.298106532303468
18.298119837120765
18.29814182715426
18.29817223087789
18.298210678181412
18.29825671013295
18.29830978886187
18.29836930949957
18.298434610193553
18.298504983190384
18.298579683456385
18.29865793570813
18.298738941027526
18.298821881364226
18.29890592253093
18.29899021731184
18.299073907956995
18.299156129109313
18.299236011677674
18.29931268803401
18.299385299509495
18.29945300485818
18.29951499234499
18.299570492565895
18.29961879351293
18.299659256429628
18.29969133154623
18.299714573141863
18.299728652571186
18.299733368345795
18.34231453122731
18.342318734153753
18.34233129207661
18.342352053765808
18.342380771269358
18.342417105348204
18.342460633356577
18.34251085715016
18.34256721301697
18.342629080009694
18.342695789630906
18.34276663360412
18.342840870586084
18.342917732924995
18.34299643180768
18.34307616129259
18.343156102666473
18.343235428320256
18.34331330601371
18.34338890388839
18.343461396465187
18.343529972437363
18.343593842912057
18.34365225255414
18.34370449088676
18.343749905215397
18.34378791389661
18.343818019240274
18.343839819711246
18.343853020356267
18.3438574408046
18.379751633075017
18.379755631155174
18.379767578378093
18.379787334787707
18.37981467045166
18.379849269848364
18.379890738402743
18.379938608981927
18.379992350367765
18.380051374364413
18.380115044440558
18.380182682851384
18.380253577081277
18.380326986659007
18.38040214873034
18.380478282804674
18.380554595973887
18.380630287746097
18.380704555228114
18.380776598902376
18.3808456291299
18.38091087406988
18.38097158767034
18.381027060029215
18.381076627509156
18.381119684037756
18.38115569245109
18.38118419531692
18.381204825056933
18.381217312499
18.381221493385723
18.410400178523883
18.410404013651455
18.41041547489414
18.410434430757793
18.41046066487308
18.410493879647085
18.410533701848486
18.410579688104157
18.410631332327515
18.410688071946534
18.410749295781557
18.410814350681825
18.41088254775034
18.410953169167513
18.41102547403776
18.41109870361747
18.41117208711684
18.411244847183784
18.41131620570308
18.411385390072965
18.41145164001638
18.411514215530005
18.411572404635564
18.411625533115796
18.4116729737268
18.41171415628973
18.41174857762382
18.41177581086423
18.411795514090343
18.41180743754002
18.411811429058446
18.434249307714097
18.43425301885761
18.43426411023652
18.434282456504935
18.434307851170484
18.434340009742307
18.434378574660705
18.434423120105198
18.434473158695425
18.434528147105667
18.43458749339968
18.434650563317273
18.43471668633205
18.434785162460837
18.434855268281012
18.43492626247329
18.434997392006014
18.43506789804704
18.435137022164415
18.435204012919566
18.43526813285854
18.43532866644272
18.43538492759667
18.43543626896935
18.4354820904858
18.435521848569405
18.435555065073288
18.435581335538785
18.4356003367793
18.435611833163893
18.435615681332116
18.45129042696804
18.451294050975516
18.45130488236338
18.45132279996109
18.451347603995455
18.451379018912597
18.451416697880642
18.451460227150136
18.451509132277348
18.451562883336337
18.451620901891918
18.45168256705056
18.45174722140051
18.451814177800724
18.45188272549884
18.45195213586899
18.452021668833115
18.45209057903919
18.45215812230922
18.452223562422244
18.45228617820436
18.45234527142638
18.45240017419827
18.452450257898203
18.452494941273955
18.45253369908024
18.45256607034273
18.452591665915804
18.45261017537871
18.452621372708997
18.45262512051724
18.461517547453237
18.46152111973396
18.461531796763435
18.46154945979413
18.461573912956684
18.46160488589876
18.461642038047433
18.461684962717385
18.461733193064024
18.46178620706722
18.461843434297666
18.46190426183158
18.46196804012108
18.46203408976695
18.46210170768899
18.462170172969326
18.462238753402005
18.462306711815945
18.462373312656233
18.46243782886711
18.462499549029918
18.4625577852335
18.462611880373778
18.46266121688647
18.46270522458663
18.462743388969095
18.46277525909054
18.462800454728068
18.46281867288488
18.46282969311816
18.462833381502534
18.464926981841906
18.464930536971504
18.464941162817013
18.464958741425285
18.464983078207535
18.465013904519328
18.465050881845215
18.465093605825682
18.465141612122633
18.46519438132944
18.465251345669863
18.46531189486833
18.46537538199724
18.465441130243676
18.465508439095906
18.465576590219978
18.465644854049884
18.465712496156247
18.465778783869574
18.465842993194368
18.465904415961205
18.465962367686817
18.466016194841774
18.466065283517963
18.46610906718249
18.46614703486806
18.466178738930644
18.46620380207847
18.46622192375117
18.466232885335717
18.46623655404222
