# vtk DataFile Version 2.0
Unstructured Grid Example
ASCII
DATASET UNSTRUCTURED_GRID

POINTS 961 float
0.400000004 0.01999999956 0
0.3866666556 0.01999999956 0
0.3733333348 0.01999999956 0
0.3600000144 0.01999999956 0
0.346666664 0.01999999956 0
0.3333333432 0.01999999956 0
0.3199999928 0.01999999956 0
0.3066666724 0.01999999956 0
0.293333322 0.01999999956 0
0.2800000012 0.01999999956 0
0.2666666804 0.01999999956 0
0.25333333 0.01999999956 0
0.2399999948 0.01999999956 0
0.226666674 0.01999999956 0
0.2133333384 0.01999999956 0
0.2000000028 0.01999999956 0
0.1866666676 0.01999999956 0
0.173333332 0.01999999956 0
0.1599999964 0.01999999956 0
0.1466666608 0.01999999956 0
0.1333333404 0.01999999956 0
0.1199999972 0.01999999956 0
0.1066666692 0.01999999956 0
0.0933333336 0.01999999956 0
0.0799999984 0.01999999956 0
0.06666667 0.01999999956 0
0.0533333348 0.01999999956 0
0.03999999912 0.01999999956 0
0.02666666732 0.01999999956 0
0.01333333364 0.01999999956 0
0.0 0.01999999956 0
0.400000004 0.00666666684 0
0.3866666556 0.00666666684 0
0.3733333348 0.00666666684 0
0.3600000144 0.00666666684 0
0.346666664 0.00666666684 0
0.3333333432 0.00666666684 0
0.3199999928 0.00666666684 0
0.3066666724 0.00666666684 0
0.293333322 0.00666666684 0
0.2800000012 0.00666666684 0
0.2666666804 0.00666666684 0
0.25333333 0.00666666684 0
0.2399999948 0.00666666684 0
0.226666674 0.00666666684 0
0.2133333384 0.00666666684 0
0.2000000028 0.00666666684 0
0.1866666676 0.00666666684 0
0.173333332 0.00666666684 0
0.1599999964 0.00666666684 0
0.1466666608 0.00666666684 0
0.1333333404 0.00666666684 0
0.1199999972 0.00666666684 0
0.1066666692 0.00666666684 0
0.0933333336 0.00666666684 0
0.0799999984 0.00666666684 0
0.06666667 0.00666666684 0
0.0533333348 0.00666666684 0
0.03999999912 0.00666666684 0
0.02666666732 0.00666666684 0
0.01333333364 0.00666666684 0
0.0 0.00666666684 0
0.400000004 -0.00666666684 0
0.3866666556 -0.00666666684 0
0.3733333348 -0.00666666684 0
0.3600000144 -0.00666666684 0
0.346666664 -0.00666666684 0
0.3333333432 -0.00666666684 0
0.3199999928 -0.00666666684 0
0.3066666724 -0.00666666684 0
0.293333322 -0.00666666684 0
0.2800000012 -0.00666666684 0
0.2666666804 -0.00666666684 0
0.25333333 -0.00666666684 0
0.2399999948 -0.00666666684 0
0.226666674 -0.00666666684 0
0.2133333384 -0.00666666684 0
0.2000000028 -0.00666666684 0
0.1866666676 -0.00666666684 0
0.173333332 -0.00666666684 0
0.1599999964 -0.00666666684 0
0.1466666608 -0.00666666684 0
0.1333333404 -0.00666666684 0
0.1199999972 -0.00666666684 0
0.1066666692 -0.00666666684 0
0.0933333336 -0.00666666684 0
0.0799999984 -0.00666666684 0
0.06666667 -0.00666666684 0
0.0533333348 -0.00666666684 0
0.03999999912 -0.00666666684 0
0.02666666732 -0.00666666684 0
0.01333333364 -0.00666666684 0
0.0 -0.00666666684 0
0.400000004 -0.01999999956 0
0.3866666556 -0.01999999956 0
0.3733333348 -0.01999999956 0
0.3600000144 -0.01999999956 0
0.346666664 -0.01999999956 0
0.3333333432 -0.01999999956 0
0.3199999928 -0.01999999956 0
0.3066666724 -0.01999999956 0
0.293333322 -0.01999999956 0
0.2800000012 -0.01999999956 0
0.2666666804 -0.01999999956 0
0.25333333 -0.01999999956 0
0.2399999948 -0.01999999956 0
0.226666674 -0.01999999956 0
0.2133333384 -0.01999999956 0
0.2000000028 -0.01999999956 0
0.1866666676 -0.01999999956 0
0.173333332 -0.01999999956 0
0.1599999964 -0.01999999956 0
0.1466666608 -0.01999999956 0
0.1333333404 -0.01999999956 0
0.1199999972 -0.01999999956 0
0.1066666692 -0.01999999956 0
0.0933333336 -0.01999999956 0
0.0799999984 -0.01999999956 0
0.06666667 -0.01999999956 0
0.0533333348 -0.01999999956 0
0.03999999912 -0.01999999956 0
0.02666666732 -0.01999999956 0
0.01333333364 -0.01999999956 0
0.0 -0.01999999956 0
0.400000004 -0.03333333508 0
0.3866666556 -0.03333333508 0
0.3733333348 -0.03333333508 0
0.3600000144 -0.03333333508 0
0.346666664 -0.03333333508 0
0.3333333432 -0.03333333508 0
0.3199999928 -0.03333333508 0
0.3066666724 -0.03333333508 0
0.293333322 -0.03333333508 0
0.2800000012 -0.03333333508 0
0.2666666804 -0.03333333508 0
0.25333333 -0.03333333508 0
0.2399999948 -0.03333333508 0
0.226666674 -0.03333333508 0
0.2133333384 -0.03333333508 0
0.2000000028 -0.03333333508 0
0.1866666676 -0.03333333508 0
0.173333332 -0.03333333508 0
0.1599999964 -0.03333333508 0
0.1466666608 -0.03333333508 0
0.1333333404 -0.03333333508 0
0.1199999972 -0.03333333508 0
0.1066666692 -0.03333333508 0
0.0933333336 -0.03333333508 0
0.0799999984 -0.03333333508 0
0.06666667 -0.03333333508 0
0.0533333348 -0.03333333508 0
0.03999999912 -0.03333333508 0
0.02666666732 -0.03333333508 0
0.01333333364 -0.03333333508 0
0.0 -0.03333333508 0
0.400000004 -0.0466666668 0
0.3866666556 -0.0466666668 0
0.3733333348 -0.0466666668 0
0.3600000144 -0.0466666668 0
0.346666664 -0.0466666668 0
0.3333333432 -0.0466666668 0
0.3199999928 -0.0466666668 0
0.3066666724 -0.0466666668 0
0.293333322 -0.0466666668 0
0.2800000012 -0.0466666668 0
0.2666666804 -0.0466666668 0
0.25333333 -0.0466666668 0
0.2399999948 -0.0466666668 0
0.226666674 -0.0466666668 0
0.2133333384 -0.0466666668 0
0.2000000028 -0.0466666668 0
0.1866666676 -0.0466666668 0
0.173333332 -0.0466666668 0
0.1599999964 -0.0466666668 0
0.1466666608 -0.0466666668 0
0.1333333404 -0.0466666668 0
0.1199999972 -0.0466666668 0
0.1066666692 -0.0466666668 0
0.0933333336 -0.0466666668 0
0.0799999984 -0.0466666668 0
0.06666667 -0.0466666668 0
0.0533333348 -0.0466666668 0
0.03999999912 -0.0466666668 0
0.02666666732 -0.0466666668 0
0.01333333364 -0.0466666668 0
0.0 -0.0466666668 0
0.400000004 -0.0599999988 0
0.3866666556 -0.0599999988 0
0.3733333348 -0.0599999988 0
0.3600000144 -0.0599999988 0
0.346666664 -0.0599999988 0
0.3333333432 -0.0599999988 0
0.3199999928 -0.0599999988 0
0.3066666724 -0.0599999988 0
0.293333322 -0.0599999988 0
0.2800000012 -0.0599999988 0
0.2666666804 -0.0599999988 0
0.25333333 -0.0599999988 0
0.2399999948 -0.0599999988 0
0.226666674 -0.0599999988 0
0.2133333384 -0.0599999988 0
0.2000000028 -0.0599999988 0
0.1866666676 -0.0599999988 0
0.173333332 -0.0599999988 0
0.1599999964 -0.0599999988 0
0.1466666608 -0.0599999988 0
0.1333333404 -0.0599999988 0
0.1199999972 -0.0599999988 0
0.1066666692 -0.0599999988 0
0.0933333336 -0.0599999988 0
0.0799999984 -0.0599999988 0
0.06666667 -0.0599999988 0
0.0533333348 -0.0599999988 0
0.03999999912 -0.0599999988 0
0.02666666732 -0.0599999988 0
0.01333333364 -0.0599999988 0
0.0 -0.0599999988 0
0.400000004 -0.0733333304 0
0.3866666556 -0.0733333304 0
0.3733333348 -0.0733333304 0
0.3600000144 -0.0733333304 0
0.346666664 -0.0733333304 0
0.3333333432 -0.0733333304 0
0.3199999928 -0.0733333304 0
0.3066666724 -0.0733333304 0
0.293333322 -0.0733333304 0
0.2800000012 -0.0733333304 0
0.2666666804 -0.0733333304 0
0.25333333 -0.0733333304 0
0.2399999948 -0.0733333304 0
0.226666674 -0.0733333304 0
0.2133333384 -0.0733333304 0
0.2000000028 -0.0733333304 0
0.1866666676 -0.0733333304 0
0.173333332 -0.0733333304 0
0.1599999964 -0.0733333304 0
0.1466666608 -0.0733333304 0
0.1333333404 -0.0733333304 0
0.1199999972 -0.0733333304 0
0.1066666692 -0.0733333304 0
0.0933333336 -0.0733333304 0
0.0799999984 -0.0733333304 0
0.06666667 -0.0733333304 0
0.0533333348 -0.0733333304 0
0.03999999912 -0.0733333304 0
0.02666666732 -0.0733333304 0
0.01333333364 -0.0733333304 0
0.0 -0.0733333304 0
0.400000004 -0.086666666 0
0.3866666556 -0.086666666 0
0.3733333348 -0.086666666 0
0.3600000144 -0.086666666 0
0.346666664 -0.086666666 0
0.3333333432 -0.086666666 0
0.3199999928 -0.086666666 0
0.3066666724 -0.086666666 0
0.293333322 -0.086666666 0
0.2800000012 -0.086666666 0
0.2666666804 -0.086666666 0
0.25333333 -0.086666666 0
0.2399999948 -0.086666666 0
0.226666674 -0.086666666 0
0.2133333384 -0.086666666 0
0.2000000028 -0.086666666 0
0.1866666676 -0.086666666 0
0.173333332 -0.086666666 0
0.1599999964 -0.086666666 0
0.1466666608 -0.086666666 0
0.1333333404 -0.086666666 0
0.1199999972 -0.086666666 0
0.1066666692 -0.086666666 0
0.0933333336 -0.086666666 0
0.0799999984 -0.086666666 0
0.06666667 -0.086666666 0
0.0533333348 -0.086666666 0
0.03999999912 -0.086666666 0
0.02666666732 -0.086666666 0
0.01333333364 -0.086666666 0
0.0 -0.086666666 0
0.400000004 -0.1000000016 0
0.3866666556 -0.1000000016 0
0.3733333348 -0.1000000016 0
0.3600000144 -0.1000000016 0
0.346666664 -0.1000000016 0
0.3333333432 -0.1000000016 0
0.3199999928 -0.1000000016 0
0.3066666724 -0.1000000016 0
0.293333322 -0.1000000016 0
0.2800000012 -0.1000000016 0
0.2666666804 -0.1000000016 0
0.25333333 -0.1000000016 0
0.2399999948 -0.1000000016 0
0.226666674 -0.1000000016 0
0.2133333384 -0.1000000016 0
0.2000000028 -0.1000000016 0
0.1866666676 -0.1000000016 0
0.173333332 -0.1000000016 0
0.1599999964 -0.1000000016 0
0.1466666608 -0.1000000016 0
0.1333333404 -0.1000000016 0
0.1199999972 -0.1000000016 0
0.1066666692 -0.1000000016 0
0.0933333336 -0.1000000016 0
0.0799999984 -0.1000000016 0
0.06666667 -0.1000000016 0
0.0533333348 -0.1000000016 0
0.03999999912 -0.1000000016 0
0.02666666732 -0.1000000016 0
0.01333333364 -0.1000000016 0
0.0 -0.1000000016 0
0.400000004 -0.1133333372 0
0.3866666556 -0.1133333372 0
0.3733333348 -0.1133333372 0
0.3600000144 -0.1133333372 0
0.346666664 -0.1133333372 0
0.3333333432 -0.1133333372 0
0.3199999928 -0.1133333372 0
0.3066666724 -0.1133333372 0
0.293333322 -0.1133333372 0
0.2800000012 -0.1133333372 0
0.2666666804 -0.1133333372 0
0.25333333 -0.1133333372 0
0.2399999948 -0.1133333372 0
0.226666674 -0.1133333372 0
0.2133333384 -0.1133333372 0
0.2000000028 -0.1133333372 0
0.1866666676 -0.1133333372 0
0.173333332 -0.1133333372 0
0.1599999964 -0.1133333372 0
0.1466666608 -0.1133333372 0
0.1333333404 -0.1133333372 0
0.1199999972 -0.1133333372 0
0.1066666692 -0.1133333372 0
0.0933333336 -0.1133333372 0
0.0799999984 -0.1133333372 0
0.06666667 -0.1133333372 0
0.0533333348 -0.1133333372 0
0.03999999912 -0.1133333372 0
0.02666666732 -0.1133333372 0
0.01333333364 -0.1133333372 0
0.0 -0.1133333372 0
0.400000004 -0.1266666652 0
0.3866666556 -0.1266666652 0
0.3733333348 -0.1266666652 0
[...]
POINT_DATA 961
SCALARS Temp float 1
LOOKUP_TABLE default
0.6647753276219949
0.6913266516840316
0.7103808177105055
0.7242350538654095
0.7343861540956911
0.7418605035309538
0.7473888245423055
0.7514970631889963
0.7545680244800623
0.7568821943352833
0.7586475291519071
0.7600201119664809
0.7611192232507296
0.7620390699721098
0.7628575370990214
0.7636431300170086
0.7644613318159514
0.7653804472788026
0.7664777423138852
0.7678464675830814
0.7696044122443144
0.7719051653823024
0.774952470980257
0.7790206238955228
0.7844818518758994
0.7918451755273527
0.8018117724204092
0.8153559736339826
0.8338486376780543
0.8592792772754305
0.8948037602598554
0.7016577944019641
0.7276932414600943
0.7465427502643598
0.7603211482402258
0.7704373878758335
0.7778974242438275
0.7834214297431255
0.7875303293617828
0.7906043044464575
0.7929224757757938
0.794692098883351
0.7960689271420187
0.7971721244295257
0.7980958952794478
0.7989181856731744
0.7997075993558962
0.8005297313976575
0.8014529979705811
0.8025547589902662
0.803928317094221
0.8056914323291254
0.8079975088380194
0.8110498368198082
0.815121760773287
0.8205836682762511
0.8279410743539197
0.8378884204221108
0.8513861133920552
0.8697760211350409
0.8949473786832954
0.9296365934803974
2.428460574684951
2.4323285200780065
2.443108585749079
2.453050980488016
2.4612724552648517
2.467813596766675
2.4729350203775025
2.476918071584793
2.4800123068672146
2.4824248505668036
2.484323275868917
2.485842317297025
2.4870911455694236
2.488160171680331
2.489127102141888
2.490062353268462
2.4910340865910294
2.492113147259582
2.4933781722734745
2.494921185983906
2.496853995323254
2.4993155965144562
2.5024807210340425
2.506569184920124
2.5118545816928135
2.5186678618630824
2.5273829830481214
2.53834645660479
2.5516116712380756
2.5659910524487204
2.5711534057167933
4.133743103875985
4.135853865394265
4.141034453690363
4.147507718521666
4.153645220487494
4.158966131725883
4.163392325692487
4.166998283368733
4.169907183808807
4.172248846345517
4.1741436955799225
4.175697970044915
4.1770039253476
4.178142186273041
4.179184933938702
4.180199400920425
4.181251490004709
4.182409463311358
4.183747731404631
4.185350752472728
4.187316958529873
4.189762435092376
4.192823548618851
4.196656881460184
4.201432564003207
4.207312571392153
4.214394472618262
4.222572417741045
4.2312026643018035
4.238111497548297
4.240926390123223
5.833989257848824
5.835112522244719
5.838148214606198
5.842258378967143
5.8466352521135665
5.8507476181159355
5.854376837305322
5.857471288550345
5.8600607332509504
5.862209912826069
5.8639951416088
5.865493172448789
5.866776650713923
5.867913068437512
5.868965529442343
5.869994463484987
5.871059829729391
5.8722235258442
5.8735518194033425
5.875117586925718
5.877002013023316
5.879295132395737
5.882093988377852
5.885496264769347
5.889585168076403
5.8943979107662745
5.899863670555608
5.905688991060693
5.911163714718002
5.915208924714301
5.916706006796362
7.531196508965084
7.531880592221283
7.533773413327267
7.536483342664744
7.53955711935967
7.542633175592244
7.545490724962469
7.54803014941651
7.550228433358008
7.552105528416216
7.553703047172773
7.555071883775788
7.5562656438640445
7.557337654191301
7.558340080061646
7.559324269336896
7.560341769294887
7.561445616532115
7.562691592193958
7.564139099931935
7.565851191116676
7.56789301388474
7.570327454973289
7.573206119568944
7.576552586429628
7.580333736020883
7.584414767573502
7.588499545251871
7.59210444394207
7.594623806817836
7.595534555329403
9.226358108326782
9.226793717826775
9.22802178594021
9.229837128789683
9.231983253916473
9.234225895309844
9.236395159619446
9.23839146696497
9.240171819574876
9.241731324130258
9.243088175067781
9.244273255959673
9.245323684660866
9.246279221313129
9.247180566829048
9.248068855062314
9.248985831787214
9.249974309943802
9.251078558602
9.252344251044233
9.253817493503945
9.25554228398207
9.257555434544132
9.259877760322741
9.262500021488197
9.265362692925562
9.26833123521333
9.271177623396824
9.273588279615737
9.275220242678289
9.275799306560625
10.919911936144562
10.920192422067323
10.920991911664421
10.922198426080374
10.923664062787187
10.925242666754961
10.926816322442463
10.928305693607378
10.929667839433666
10.930888113163732
10.931971298662305
10.932934319961126
10.93380109187289
10.934599273897215
10.935358438489803
10.936109203840441
10.93688294665631
10.937711747625617
10.93862826314854
10.939665191710898
10.940853937742423
10.942221987610651
10.94378837446061
10.945556665097424
10.947505096440397
10.949574605724012
10.951657965862474
10.953596760784961
10.95519517731556
10.95625529890103
10.956627375018684
12.612075499271635
12.61224850855476
12.612745255413218
12.613505219798782
12.614445707650939
12.61548077957008
12.61653640160366
12.617558397930106
12.618513715364111
12.619387440751758
12.620178289132532
12.620894235123217
12.621549070560954
12.622160024532715
12.622746272840267
12.62332809905168
12.623926463465583
12.624562735109052
12.625258361828866
12.626034236603363
12.626909485518631
12.62789937492452
12.629012006677247
12.630243635808409
12.631572752662066
12.632953967510256
12.634313995026996
12.635553266496059
12.636556535407351
12.63721305389413
12.6374418291748
14.3029548064237
14.303045142374263
14.303305947145958
14.303709208809698
14.30421582249325
14.304783839462747
14.305375563830959
14.305961853512251
14.306523486678788
14.3070503676754
14.30753969975961
14.307993951714135
14.308419107291703
14.308823363819823
14.309216249871927
14.309608069590485
14.310009558993947
14.31043162569152
14.310885051342833
14.311380027399505
14.311925383547354
14.312527368631287
14.313187852854437
14.313901952060794
14.314655271331166
14.315421418128894
14.316160926406232
14.316823039940719
14.317351448586127
14.317693735781447
14.317812384667846
15.992600695304645
15.99261956762913
15.99267501741308
15.992763758015922
15.99288095855786
15.9930210057428
15.993178256047427
15.993347618101646
15.993524908146055
15.993706979765872
15.993891696719118
15.994077806341616
15.994264772137461
15.994452603038305
15.994641691637192
15.994832666687554
15.995026258812977
15.995223168583125
15.995423928239862
15.995628747132717
15.995837332822731
15.996048686959528
15.996260879006051
15.996470829196719
15.996674140518145
15.996865059024682
15.997036650314902
15.997181268541599
15.99729133617431
15.99736034436234
15.99738387029781
16.0868729409459
16.086888480986236
16.08693431083746
16.08700818500407
16.087106743218257
16.087225976097272
16.087361710595673
16.087510017003268
16.08766749377066
16.08783141142578
16.087999746728737
16.088171132900438
16.088344762965736
16.088520274295583
16.088697625762826
16.088876975591226
16.089058563366688
16.089242590784334
16.08942909779407
16.08961782990273
16.089808094497215
16.08999861064877
16.090187359339232
16.09037146284391
16.0905471212759
16.09070965692038
16.090853710589787
16.090973618128224
16.091063956473302
16.09112018907049
16.09113928819922
16.18104794644396
16.181060990399416
16.181099570540226
16.18116210774811
16.181246204554185
16.181348938294025
16.181467180064097
16.181597878143293
16.18173827595625
16.18188604228226
16.182039327616675
16.182196755339096
16.182357369983645
16.18252056208199
16.182685978031152
16.18285342313605
16.183022763354348
16.18319382372645
16.183366283744064
16.183539569176318
16.18371274166107
16.183884392694292
16.184052549147957
16.18421461369486
16.184367357333485
16.184506994947693
16.184629364034095
16.184730213369576
16.18480558445617
16.184852235583374
16.184868034145204
16.275130442882308
16.275141569888163
16.275174555006334
16.275228258301624
16.275300928237325
16.275390391061897
16.275494264101468
16.27561015370774
16.275735818523664
16.275869277698284
16.276008870470722
16.276153267121856
16.276301444364332
16.276452638170245
16.27660627942089
16.276761919454863
16.276919151595177
16.277077528515772
16.277236477774295
16.277395217177432
16.277552672941162
16.277707407592178
16.277857563405302
16.278000839371582
16.278134510878377
16.27825551064282
16.27836057847416
16.278446478001136
16.278510264255633
16.278549567389362
16.278562846673886
16.3691239882196
16.369133611132444
16.369162188508202
16.369208877140547
16.369272368168538
16.36935101222514
16.369442964482875
16.36954632374525
16.369659253624732
16.369780068715446
16.369907289181178
16.370039659777838
16.37017614090589
16.370315880271896
16.370458168074478
16.37060238142662
16.37074792384785
16.370894160537564
16.371040352719756
16.371185593715182
16.371328750220382
16.371468415138573
16.3716028760589
16.37173011293193
16.37184782880147
16.371953524713458
16.372044620200423
16.372118614598453
16.37217327618417
16.372206835316383
16.372218152823795
16.46303128083136
16.463039701826858
16.46306474518589
16.46310577250552
16.463161784027125
16.46323150300199
16.463313475897763
16.463406170881264
16.463508067551672
16.463617724010167
16.46373382366394
16.463855196242292
16.46398081748701
16.464109793233156
16.464241329035627
16.464374689779312
16.4645091545051
16.464643967395308
16.464778288454156
16.46491114679158
16.465041399871495
16.46516770412405
16.46528849947478
16.465402017979386
16.46550631714483
16.465599344752885
16.46567903378372
16.465743422273487
16.465790788253344
16.465819783410076
16.46582954710929
16.553845065304262
16.553852509502885
16.55387467270475
16.553911060613693
16.553960893076667
16.55402316196863
16.5540967014542
16.554180258300523
16.55427255844888
16.554372358596748
16.55447848497731
16.554589853480472
16.554705473835224
16.554824441771014
16.554945919151233
16.55506910546231
16.555193205183684
16.555317391884838
16.555440772417903
16.555562353952958
16.555681016796374
16.555795497406503
16.55590438293579
16.556006125062233
16.556099071800144
16.556181521663103
16.556251797693523
16.556308336710973
16.556349786563025
16.556375100059196
16.556383613666142
16.63853622172474
16.638542860307542
16.638562642488736
16.638595177169307
16.63863984275527
16.638695827503994
16.638762179483486
16.638837857210888
16.638921779272973
16.639012863793962
16.639110060014637
16.63921236634945
16.63931883669695
16.639428577808257
16.6395407369851
16.63965448266769
16.63976898175136
16.639883374233957
16.63999674819541
16.640108117499594
16.64021640463814
16.640320432241612
16.64041892369052
16.640510518872055
16.64059380276705
16.64066734987339
16.640729781731594
16.640779833693845
16.6408164257527
16.640838729516954
16.64084622346917
16.7170750328528
16.71708099995621
16.71709879365861
16.717128097898478
16.717168407196443
16.717219055189364
16.717279250644857
16.717348114269768
16.717424715960945
16.717508104999926
16.717597335597013
16.717691482595797
16.717789648613245
16.717890964733837
16.717994583608434
16.718099666894894
16.718205370269047
16.718310826323616
16.718415127921787
16.71851731397784
16.718616359571854
16.71871117317948
16.718800600827223
16.718883442010217
16.71895847458865
16.719024490911934
16.719080342562346
16.719124990641834
16.719157557927296
16.719177377295182
16.719184031149663
16.789433883176983
16.789439286226223
16.789455406845647
16.789481984294998
16.789518599238015
16.789564694206895
16.789619599928816
16.789682562353065
16.789752770881066
16.789829381557514
16.78991153774806
16.78999838361558
16.79008907141034
16.79018276426599
16.790278633125833
16.790375849272362
16.790473575170903
16.790570953676372
16.790667097742144
16.790761082198497
16.790851939054406
16.790938658506
16.791020195049835
16.791095482681975
16.791163456242824
16.791223080736973
16.7912733862892
16.79131350633771
16.79134271648712
16.791360470005774
16.79136642639454
16.85558721762559
16.855592144502815
16.855606850808925
16.85563111709797
16.85566458869709
16.85570679059078
16.855757146950708
16.855815001206736
16.855879637694855
16.855950299604302
16.85602620582369
16.856106562477873
16.856190570038518
16.85627742742823
16.856366331638387
16.856456473990608
16.85654703532573
16.856637179940634
16.856726050028637
16.8568127618331
16.856896404591236
16.85697604398458
16.85705072923285
16.857119507198576
16.857181440577577
16.857235631768205
16.857281250381792
16.8573175625451
16.857343960206713
16.857359987525626
16.85736536188839
16.915511526728487
16.91551605083059
16.915529559501095
16.91555186445201
16.915582660049804
16.915621534302588
16.91566798358225
16.9157214277251
16.91578122687211
16.915846695512464
16.91591711635883
16.915991750274102
16.916069843063852
16.916150630375427
16.91623333919201
16.916317186798167
16.91640137915592
16.916485108329184
16.91656755038666
16.916647864695125
16.916725195378458
16.91679867630081
16.916867438553865
16.916930623368085
16.916987397624816
16.91703697342373
16.917078629951376
16.917111736231796
16.917135773536152
16.917150355291945
16.917155242787132
16.96918570744653
16.969189891310407
16.969202387383945
16.969223031093502
16.969251554302698
16.96928759355603
16.969330701377753
16.969380357808237
16.969435983729365
16.969496952014445
16.969562599124504
16.96963223373671
16.969705143181347
16.969780598805578
16.969857858761287
16.969936168906916
16.970014763486603
16.970092865086137
16.970169685029717
16.970244424889806
16.97031627965205
16.970384443621384
16.970448117963308
16.97050652246735
16.97055890884872
16.970604576955516
16.970642892373178
16.970673304336636
16.970695363130808
16.970708735353735
16.97071321584785
17.016590402966763
17.0165943009163
17.016605945448198
17.01662519014182
17.016651795684652
17.01668543617398
17.016725707967048
17.016772138655877
17.016824197822476
17.01688130605242
17.016942844797256
17.017008163976577
17.017076588073365
17.017147421751627
17.01721995352496
17.0172934580273
17.017367198332124
17.017440427718327
17.017512391834686
17.017582331748947
17.01764948824548
17.017713108253407
17.017772452258225
17.017826805033234
17.017875487153372
17.017917868599486
17.01795338314853
17.017981542709425
17.01800195107121
17.018014315816618
17.018018457554376
17.05770891018954
17.057712570294548
17.057723506038386
17.057741584917046
17.057766589798334
17.057798223845044
17.057836117610478
17.057879836172475
17.05792888801279
17.05798273246083
17.058040788247617
17.05810244030956
17.058167045579335
17.058233938726158
17.058302436413882
17.0583718405267
17.058441441638003
17.05851052205021
17.058578359192385
17.058644229718475
17.058707414538922
17.058767205514314
17.058822912651397
17.058873873946645
17.05891946547879
17.058959113014332
17.05899230398516
17.059018599184164
17.059037643848104
17.059049177149674
17.059053039491904
17.09252635421518
17.092529819777454
17.092540175507423
17.09255729951786
17.09258099165304
17.092610977435495
17.09264691390717
17.092688395446448
17.092734961285412
17.092786101809764
17.092841266135387
17.092899868301622
17.092961292804134
17.093024900379284
17.093090032649204
17.093156016002755
17.09322216585655
17.093287790576415
17.09335219571934
17.0934146888329
17.093474584948115
17.093531213381667
17.093583924691096
17.093632099781882
17.093675158890587
17.093712571673446
17.09374386738782
17.093768644649376
17.093786580576957
17.093797438537894
17.093801074052497
17.12103038136058
17.12103369205955
17.121043585912076
17.121059949008977
17.121082593987555
17.12111126329266
17.12114563413077
17.121185323354865
17.12122989400601
17.12127886079114
17.121331696942704
17.1213878399549
17.121446696907874
17.121507650252674
17.121570062704116
17.121633281562232
17.12169664350775
17.12175947912062
17.1218211176877
17.121880892459536
17.12193814642246
17.121992239120804
17.12204255338326
17.122088503841688
17.12212954506941
17.122165180540378
17.122194971494103
17.12221854528882
17.122235603153513
17.122245926686226
17.122249382771116
17.143210827972002
17.143214020776
17.14322356291414
17.14323934627985
17.143261192836086
17.143288857406755
17.143322032018744
17.14336035014416
17.143403392561716
17.143450692260796
17.143501740791443
17.14355599367071
17.14361287554674
17.14367178596486
17.14373210441357
17.14379319493345
17.14385441126212
17.143915101744813
17.143974614509755
17.1440323030132
17.144087531973398
17.144139684169943
17.14418816697601
17.144232420430242
17.144271924756282
17.144306208509178
17.144334856504926
17.144357517185384
17.14437390939619
17.144383828017546
17.144387148197026
17.159059649048963
17.159062758961436
17.159072053763193
17.15908742929139
17.159108713858203
17.15913567073799
17.159168002110576
17.159205352885582
17.159247316116925
17.15929343753039
17.15934322153373
17.15939613640061
17.15945161932199
17.15950908214906
17.159567916528914
17.159627498690806
17.15968719480726
17.159746366148116
17.159804374481507
17.15986058779143
17.159914386299285
17.159965169228443
17.16001236119032
17.16005541994341
17.160093843491044
17.16012717768064
17.16015502350998
17.160177043838196
17.160192969522175
17.16020260447837
17.160205829468097
17.16857123549131
17.168574296182832
17.16858344409829
17.168598577364723
17.168619527985165
17.168646064155045
17.168677893980835
17.168714669068912
17.168755989687146
17.168801409078835
17.1688504392785
17.168902556167463
17.16895720445817
17.16901380341971
17.169071752059846
17.169130434006963
17.169189222987928
17.169247488114085
17.16930459940375
17.169359933590147
17.169412880185092
17.16946284821571
17.16950927252021
17.169551621321954
17.16958940308188
17.169622173782535
17.169649543877586
17.169671184630175
17.169686833885024
17.169696300808013
17.169699469418475
17.171742133686376
17.17174517805532
17.17175427725767
17.171769330171394
17.17179017001063
17.171816566587008
17.171848229955792
17.17188481392875
17.171925921153775
17.171971107359777
17.172019887109162
17.17207173881138
17.17212610968517
17.17218242147762
17.1722400756604
17.17229845834195
17.172356945782074
17.172414909719745
17.17247172293368
17.172526765078413
17.172579428760297
17.172629126263793
17.172675295816855
17.172717409103623
17.172754978036476
17.172787561937184
17.17281477437014
17.172836289359754
17.172851847044534
17.17286125831216
17.17286440825017
