# vtk DataFile Version 2.0
Unstructured Grid Example
ASCII
DATASET UNSTRUCTURED_GRID

POINTS 961 float
0.400000004 0.01999999956 0
0.3866666556 0.01999999956 0
0.3733333348 0.01999999956 0
0.3600000144 0.01999999956 0
0.346666664 0.01999999956 0
0.3333333432 0.01999999956 0
0.3199999928 0.01999999956 0
0.3066666724 0.01999999956 0
0.293333322 0.01999999956 0
0.2800000012 0.01999999956 0
0.2666666804 0.01999999956 0
0.25333333 0.01999999956 0
0.2399999948 0.01999999956 0
0.226666674 0.01999999956 0
0.2133333384 0.01999999956 0
0.2000000028 0.01999999956 0
0.1866666676 0.01999999956 0
0.173333332 0.01999999956 0
0.1599999964 0.01999999956 0
0.1466666608 0.01999999956 0
0.1333333404 0.01999999956 0
0.1199999972 0.01999999956 0
0.1066666692 0.01999999956 0
0.0933333336 0.01999999956 0
0.0799999984 0.01999999956 0
0.06666667 0.01999999956 0
0.0533333348 0.01999999956 0
0.03999999912 0.01999999956 0
0.02666666732 0.01999999956 0
0.01333333364 0.01999999956 0
0.0 0.01999999956 0
0.400000004 0.00666666684 0
0.3866666556 0.00666666684 0
0.3733333348 0.00666666684 0
0.3600000144 0.00666666684 0
0.346666664 0.00666666684 0
0.3333333432 0.00666666684 0
0.3199999928 0.00666666684 0
0.3066666724 0.00666666684 0
0.293333322 0.00666666684 0
0.2800000012 0.00666666684 0
0.2666666804 0.00666666684 0
0.25333333 0.00666666684 0
0.2399999948 0.00666666684 0
0.226666674 0.00666666684 0
0.2133333384 0.00666666684 0
0.2000000028 0.00666666684 0
0.1866666676 0.00666666684 0
0.173333332 0.00666666684 0
0.1599999964 0.00666666684 0
0.1466666608 0.00666666684 0
0.1333333404 0.00666666684 0
0.1199999972 0.00666666684 0
0.1066666692 0.00666666684 0
0.0933333336 0.00666666684 0
0.0799999984 0.00666666684 0
0.06666667 0.00666666684 0
0.0533333348 0.00666666684 0
0.03999999912 0.00666666684 0
0.02666666732 0.00666666684 0
0.01333333364 0.00666666684 0
0.0 0.00666666684 0
0.400000004 -0.00666666684 0
0.3866666556 -0.00666666684 0
0.3733333348 -0.00666666684 0
0.3600000144 -0.00666666684 0
0.346666664 -0.00666666684 0
0.3333333432 -0.00666666684 0
0.3199999928 -0.00666666684 0
0.3066666724 -0.00666666684 0
0.293333322 -0.00666666684 0
0.2800000012 -0.00666666684 0
0.2666666804 -0.00666666684 0
0.25333333 -0.00666666684 0
0.2399999948 -0.00666666684 0
0.226666674 -0.00666666684 0
0.2133333384 -0.00666666684 0
0.2000000028 -0.00666666684 0
0.1866666676 -0.00666666684 0
0.173333332 -0.00666666684 0
0.1599999964 -0.00666666684 0
0.1466666608 -0.00666666684 0
0.1333333404 -0.00666666684 0
0.1199999972 -0.00666666684 0
0.1066666692 -0.00666666684 0
0.0933333336 -0.00666666684 0
0.0799999984 -0.00666666684 0
0.06666667 -0.00666666684 0
0.0533333348 -0.00666666684 0
0.03999999912 -0.00666666684 0
0.02666666732 -0.00666666684 0
0.01333333364 -0.00666666684 0
0.0 -0.00666666684 0
0.400000004 -0.01999999956 0
0.3866666556 -0.01999999956 0
0.3733333348 -0.01999999956 0
0.3600000144 -0.01999999956 0
0.346666664 -0.01999999956 0
0.3333333432 -0.01999999956 0
0.3199999928 -0.01999999956 0
0.3066666724 -0.01999999956 0
0.293333322 -0.01999999956 0
0.2800000012 -0.01999999956 0
0.2666666804 -0.01999999956 0
0.25333333 -0.01999999956 0
0.2399999948 -0.01999999956 0
0.226666674 -0.01999999956 0
0.2133333384 -0.01999999956 0
0.2000000028 -0.01999999956 0
0.1866666676 -0.01999999956 0
0.173333332 -0.01999999956 0
0.1599999964 -0.01999999956 0
0.1466666608 -0.01999999956 0
0.1333333404 -0.01999999956 0
0.1199999972 -0.01999999956 0
0.1066666692 -0.01999999956 0
0.0933333336 -0.01999999956 0
0.0799999984 -0.01999999956 0
0.06666667 -0.01999999956 0
0.0533333348 -0.01999999956 0
0.03999999912 -0.01999999956 0
0.02666666732 -0.01999999956 0
0.01333333364 -0.01999999956 0
0.0 -0.01999999956 0
0.400000004 -0.03333333508 0
0.3866666556 -0.03333333508 0
0.3733333348 -0.03333333508 0
0.3600000144 -0.03333333508 0
0.346666664 -0.03333333508 0
0.3333333432 -0.03333333508 0
0.3199999928 -0.03333333508 0
0.3066666724 -0.03333333508 0
0.293333322 -0.03333333508 0
0.2800000012 -0.03333333508 0
0.2666666804 -0.03333333508 0
0.25333333 -0.03333333508 0
0.2399999948 -0.03333333508 0
0.226666674 -0.03333333508 0
0.2133333384 -0.03333333508 0
0.2000000028 -0.03333333508 0
0.1866666676 -0.03333333508 0
0.173333332 -0.03333333508 0
0.1599999964 -0.03333333508 0
0.1466666608 -0.03333333508 0
0.1333333404 -0.03333333508 0
0.1199999972 -0.03333333508 0
0.1066666692 -0.03333333508 0
0.0933333336 -0.03333333508 0
0.0799999984 -0.03333333508 0
0.06666667 -0.03333333508 0
0.0533333348 -0.03333333508 0
0.03999999912 -0.03333333508 0
0.02666666732 -0.03333333508 0
0.01333333364 -0.03333333508 0
0.0 -0.03333333508 0
0.400000004 -0.0466666668 0
0.3866666556 -0.0466666668 0
0.3733333348 -0.0466666668 0
0.3600000144 -0.0466666668 0
0.346666664 -0.0466666668 0
0.3333333432 -0.0466666668 0
0.3199999928 -0.0466666668 0
0.3066666724 -0.0466666668 0
0.293333322 -0.0466666668 0
0.2800000012 -0.0466666668 0
0.2666666804 -0.0466666668 0
0.25333333 -0.0466666668 0
0.2399999948 -0.0466666668 0
0.226666674 -0.0466666668 0
0.2133333384 -0.0466666668 0
0.2000000028 -0.0466666668 0
0.1866666676 -0.0466666668 0
0.173333332 -0.0466666668 0
0.1599999964 -0.0466666668 0
0.1466666608 -0.0466666668 0
0.1333333404 -0.0466666668 0
0.1199999972 -0.0466666668 0
0.1066666692 -0.0466666668 0
0.0933333336 -0.0466666668 0
0.0799999984 -0.0466666668 0
0.06666667 -0.0466666668 0
0.0533333348 -0.0466666668 0
0.03999999912 -0.0466666668 0
0.02666666732 -0.0466666668 0
0.01333333364 -0.0466666668 0
0.0 -0.0466666668 0
0.400000004 -0.0599999988 0
0.3866666556 -0.0599999988 0
0.3733333348 -0.0599999988 0
0.3600000144 -0.0599999988 0
0.346666664 -0.0599999988 0
0.3333333432 -0.0599999988 0
0.3199999928 -0.0599999988 0
0.3066666724 -0.0599999988 0
0.293333322 -0.0599999988 0
0.2800000012 -0.0599999988 0
0.2666666804 -0.0599999988 0
0.25333333 -0.0599999988 0
0.2399999948 -0.0599999988 0
0.226666674 -0.0599999988 0
0.2133333384 -0.0599999988 0
0.2000000028 -0.0599999988 0
0.1866666676 -0.0599999988 0
0.173333332 -0.0599999988 0
0.1599999964 -0.0599999988 0
0.1466666608 -0.0599999988 0
0.1333333404 -0.0599999988 0
0.1199999972 -0.0599999988 0
0.1066666692 -0.0599999988 0
0.0933333336 -0.0599999988 0
0.0799999984 -0.0599999988 0
0.06666667 -0.0599999988 0
0.0533333348 -0.0599999988 0
0.03999999912 -0.0599999988 0
0.02666666732 -0.0599999988 0
0.01333333364 -0.0599999988 0
0.0 -0.0599999988 0
0.400000004 -0.0733333304 0
0.3866666556 -0.0733333304 0
0.3733333348 -0.0733333304 0
0.3600000144 -0.0733333304 0
0.346666664 -0.0733333304 0
0.3333333432 -0.0733333304 0
0.3199999928 -0.0733333304 0
0.3066666724 -0.0733333304 0
0.293333322 -0.0733333304 0
0.2800000012 -0.0733333304 0
0.2666666804 -0.0733333304 0
0.25333333 -0.0733333304 0
0.2399999948 -0.0733333304 0
0.226666674 -0.0733333304 0
0.2133333384 -0.0733333304 0
0.2000000028 -0.0733333304 0
0.1866666676 -0.0733333304 0
0.173333332 -0.0733333304 0
0.1599999964 -0.0733333304 0
0.1466666608 -0.0733333304 0
0.1333333404 -0.0733333304 0
0.1199999972 -0.0733333304 0
0.1066666692 -0.0733333304 0
0.0933333336 -0.0733333304 0
0.0799999984 -0.0733333304 0
0.06666667 -0.0733333304 0
0.0533333348 -0.0733333304 0
0.03999999912 -0.0733333304 0
0.02666666732 -0.0733333304 0
0.01333333364 -0.0733333304 0
0.0 -0.0733333304 0
0.400000004 -0.086666666 0
0.3866666556 -0.086666666 0
0.3733333348 -0.086666666 0
0.3600000144 -0.086666666 0
0.346666664 -0.086666666 0
0.3333333432 -0.086666666 0
0.3199999928 -0.086666666 0
0.3066666724 -0.086666666 0
0.293333322 -0.086666666 0
0.2800000012 -0.086666666 0
0.2666666804 -0.086666666 0
0.25333333 -0.086666666 0
0.2399999948 -0.086666666 0
0.226666674 -0.086666666 0
0.2133333384 -0.086666666 0
0.2000000028 -0.086666666 0
0.1866666676 -0.086666666 0
0.173333332 -0.086666666 0
0.1599999964 -0.086666666 0
0.1466666608 -0.086666666 0
0.1333333404 -0.086666666 0
0.1199999972 -0.086666666 0
0.1066666692 -0.086666666 0
0.0933333336 -0.086666666 0
0.0799999984 -0.086666666 0
0.06666667 -0.086666666 0
0.0533333348 -0.086666666 0
0.03999999912 -0.086666666 0
0.02666666732 -0.086666666 0
0.01333333364 -0.086666666 0
0.0 -0.086666666 0
0.400000004 -0.1000000016 0
0.3866666556 -0.1000000016 0
0.3733333348 -0.1000000016 0
0.3600000144 -0.1000000016 0
0.346666664 -0.1000000016 0
0.3333333432 -0.1000000016 0
0.3199999928 -0.1000000016 0
0.3066666724 -0.1000000016 0
0.293333322 -0.1000000016 0
0.2800000012 -0.1000000016 0
0.2666666804 -0.1000000016 0
0.25333333 -0.1000000016 0
0.2399999948 -0.1000000016 0
0.226666674 -0.1000000016 0
0.2133333384 -0.1000000016 0
0.2000000028 -0.1000000016 0
0.1866666676 -0.1000000016 0
0.173333332 -0.1000000016 0
0.1599999964 -0.1000000016 0
0.1466666608 -0.1000000016 0
0.1333333404 -0.1000000016 0
0.1199999972 -0.1000000016 0
0.1066666692 -0.1000000016 0
0.0933333336 -0.1000000016 0
0.0799999984 -0.1000000016 0
0.06666667 -0.1000000016 0
0.0533333348 -0.1000000016 0
0.03999999912 -0.1000000016 0
0.02666666732 -0.1000000016 0
0.01333333364 -0.1000000016 0
0.0 -0.1000000016 0
0.400000004 -0.1133333372 0
0.3866666556 -0.1133333372 0
0.3733333348 -0.1133333372 0
0.3600000144 -0.1133333372 0
0.346666664 -0.1133333372 0
0.3333333432 -0.1133333372 0
0.3199999928 -0.1133333372 0
0.3066666724 -0.1133333372 0
0.293333322 -0.1133333372 0
0.2800000012 -0.1133333372 0
0.2666666804 -0.1133333372 0
0.25333333 -0.1133333372 0
0.2399999948 -0.1133333372 0
0.226666674 -0.1133333372 0
0.2133333384 -0.1133333372 0
0.2000000028 -0.1133333372 0
0.1866666676 -0.1133333372 0
0.173333332 -0.1133333372 0
0.1599999964 -0.1133333372 0
0.1466666608 -0.1133333372 0
0.1333333404 -0.1133333372 0
0.1199999972 -0.1133333372 0
0.1066666692 -0.1133333372 0
0.0933333336 -0.1133333372 0
0.0799999984 -0.1133333372 0
0.06666667 -0.1133333372 0
0.0533333348 -0.1133333372 0
0.03999999912 -0.1133333372 0
0.02666666732 -0.1133333372 0
0.01333333364 -0.1133333372 0
0.0 -0.1133333372 0
0.400000004 -0.1266666652 0
0.3866666556 -0.1266666652 0
0.3733333348 -0.1266666652 0
[...]
POINT_DATA 961
SCALARS Temp float 1
LOOKUP_TABLE default
0.7616526874023096
0.7920766094273672
0.8139168644725255
0.829803598507594
0.8414502754101305
0.8500318957909718
0.856385033255147
0.8611118718571453
0.8646507572650062
0.8673229213902214
0.8693665814800987
0.8709605837601592
0.872241654280987
0.8733178259260828
0.8742784566778067
0.8752021769552236
0.8761641680131741
0.8772428525709344
0.8785269238764257
0.8801233871482934
0.8821673526885829
0.8848349293424354
0.8883596582339751
0.8930558638798867
0.8993500014189468
0.907825144763385
0.9192843697466214
0.9348434848580902
0.9560722956742156
0.9852489438189088
1.0259879929260887
0.8038643448215377
0.8336967407854681
0.8553025139708456
0.8711023163650949
0.8827090294755974
0.891274243324596
0.8976224443422636
0.9023500625449011
0.9058924360138099
0.9085692308790441
0.910617859670391
0.9122167892203351
0.913502610347653
0.9145833515242349
0.9155484390201107
0.9164766143180678
0.9174431852954288
0.9185267005387173
0.919815959129039
0.9214180237903684
0.9234679691930046
0.9261416896807027
0.9296722034219607
0.9343727424182713
0.9406676489430007
0.9491359746280401
0.9605730694053992
0.9760787768144786
0.9971896568565661
1.0260689769581095
1.0658494781205334
2.780133838704198
2.784568225936011
2.7969270955813905
2.808330492368501
2.8177654054300483
2.825277515087956
2.8311648023426326
2.835749173629991
2.8393162507295746
2.842103144415744
2.8443017303920164
2.8460663204243097
2.847521982365728
2.8487723245828933
2.84990642461109
2.851005024926444
2.852146295773367
2.853411486947223
2.854890773759179
2.8566896601752143
2.8589362962312013
2.8617899514616374
2.865450788559264
2.8701705512537536
2.8762624891720994
2.884105407629898
2.894127145463348
2.9067237116494105
2.9219545867115255
2.938455884471751
2.944380006132541
4.73171111280475
4.7341319119727165
4.740074579748292
4.747502439018561
4.754549070826779
4.760662923892173
4.765753940492466
4.769907024384246
4.773262977371241
4.775970294755812
4.778166776906101
4.779974024662799
4.781497659502622
4.782830008396023
4.784053746837273
4.7852458957271615
4.786481960738479
4.787840152127374
4.789405718457799
4.791275405044316
4.793561941018424
4.79639824070541
4.799940393860251
4.80436756429455
4.8098743116601215
4.816645669097973
4.82479260739576
4.834192614960832
4.844106201768056
4.8520395519542525
4.85527114855309
6.677473075490964
6.678762305153254
6.682247074321616
6.686966963749225
6.691996020262463
6.696725111655567
6.700903269079813
6.704470946010757
6.70746190752509
6.7099500595856565
6.712022621854487
6.713767360526453
6.715267370270336
6.716599867802812
6.71783706101103
6.7190481058984055
6.720301624710698
6.721668459236388
6.723224448854326
6.725052986687402
6.727246954804256
6.729909330477677
6.733151056396155
6.737083718568708
6.741802189677314
6.7473484706640665
6.753640540876098
6.760340965089112
6.766634432728282
6.771282859570697
6.77300290291174
8.619699966793707
8.620485919847887
8.622661029133335
8.625776349694025
8.629312219031974
8.632853983096208
8.636148285365262
8.639080623122416
8.641624299363128
8.64380188728391
8.645660815996433
8.647259181268847
8.648658211484477
8.649918835498305
8.651100665495154
8.652262385246438
8.653462909571845
8.654762856064304
8.656225976237645
8.657920152982491
8.659917418837914
8.662292165714042
8.665116133960854
8.668448055954162
8.672314442886465
8.676676700766716
8.681379554748704
8.686082672971343
8.690230735150005
8.693128584685747
8.694175958776748
10.559522028246954
10.560023248664075
10.56143660841871
10.563526843217716
10.565999815938424
10.568586803393496
10.571092816899828
10.573403431510426
10.575469066994383
10.577283822358584
10.578868271566767
10.580257547084546
10.581493940616783
10.582622783914209
10.583690495151984
10.584743992736774
10.585830896164621
10.58700004277156
10.588301927754786
10.589788637823174
10.59151272974741
10.593524308203355
10.595865194275984
10.598558814543242
10.601594075653626
10.604902167529339
10.608328218587591
10.611610142400053
10.61438778056787
10.616267374308746
10.616934165805837
12.49743386835216
12.497757339206476
12.498679619553915
12.500072274124626
12.501765635851186
12.503591988666354
12.50541594190551
12.507146293775977
12.508733541053397
12.510160602963122
12.511432668971223
12.512568845832424
12.51359625635483
12.514546318667612
12.51545264536353
12.516350047355672
12.517274202379234
12.51826158948136
12.51934933839598
12.520574613536605
12.521973077210411
12.523575876010032
12.5254044354532
12.527462415108385
12.529724397424058
12.532122166809573
12.53453226387516
12.536772539975923
12.538618006149058
12.539841345718038
12.540270599432407
14.433678327165222
14.433878659745215
14.434454091795477
14.43533517422355
14.43642699040825
14.437630856358844
14.438861693301387
14.440057150780907
14.441179064641348
14.442210045125284
14.443148311290846
14.444002687266767
14.444788658686841
14.445525646299336
14.44623529803267
14.446940527254041
14.447665018565488
14.448432919903482
14.449268463286998
14.45019523689355
14.451234793672509
14.45240425012687
14.453712495280767
14.455154821815272
14.456706142047674
14.458313981351523
14.459893884511043
14.461331281354239
14.462493670929982
14.463253783834954
14.463518568579207
16.368371252639747
16.368476881291265
16.368782047176733
16.369254567737748
16.369849497461296
16.370518585854978
16.371218416135193
16.371915339669265
16.372587047845904
16.37322166641819
16.373815665868435
16.37437153422247
16.374895773376334
16.375397410320904
16.375886988060707
16.376375930548587
16.376876150818394
16.377399754358947
16.37795869963193
16.378564267291843
16.379226176904783
16.379951190775877
16.380741053904035
16.381589772606894
16.382480457211
16.383382475997532
16.384250229476237
16.38502520596602
16.385642572427784
16.38604202195915
16.386180407342962
18.30156605101493
18.301589833318225
18.30165981912385
18.301772171813365
18.301921239448994
18.30210042925462
18.302303071962346
18.30252309139502
18.302755415056303
18.302996125438252
18.303242432621666
18.30349253250407
18.30374541835127
18.304000689227337
18.30425836849543
18.304518738593178
18.304782191452265
18.305049081504734
18.305319571509667
18.305593459767454
18.305869979427158
18.30614756912845
18.306423617726566
18.30669422034959
18.306953990086814
18.30719601717506
18.307412075960205
18.30759316709482
18.307730415915994
18.307816223244195
18.30784543489222
18.409419760816114
18.409439738975216
18.409498744345356
18.409594133569705
18.40972194011285
18.409877409202313
18.41005555634602
18.410251635781215
18.410461470010052
18.410681617287086
18.410909414480425
18.411142923359883
18.411380823287377
18.41162228308989
18.411866824272593
18.41211418496834
18.412364189179396
18.41261661445811
18.412871054426454
18.413126771232797
18.41338253541774
18.413636458564554
18.413885825898177
18.414126963030785
18.414355167605926
18.414564764794022
18.414749336899007
18.414902159205393
18.4150168299907
18.415088013867507
18.4151121578909
18.51715295098915
18.517170106239973
18.517220916005513
18.51730349982552
18.517414993189146
18.517551884712297
18.51771038377275
18.517886747259762
18.51807753243873
18.518279748697992
18.518490925877597
18.518709107516237
18.518932795099506
18.51916086622525
18.51939247542762
18.519626947136544
18.519863667696487
18.520101973485886
18.520341035656184
18.520579740896927
18.520816569640136
18.52104947956792
18.521275801778884
18.52149217767665
18.52169455489313
18.52187827861509
18.522038300920563
18.522169515763224
18.522267200012745
18.522327502731702
18.522347897304037
18.624770962356482
18.624785981589746
18.62483056134838
18.624903322876214
18.62500213921042
18.62512435340532
18.625267025053212
18.62542715905026
18.625601895785138
18.62578863768685
18.625985121305014
18.62618943329649
18.626399985844273
18.626615467023818
18.626834771314655
18.62705691850614
18.627280968571164
18.627505931682443
18.62773067627222
18.627953837000234
18.628173725933543
18.628388255162218
18.628594876642943
18.62879056118434
18.628971825648406
18.62913483053927
18.62927555616693
18.629390055118748
18.62947476267071
18.62952682503476
18.62954439278078
18.73227774825989
18.73229112833703
18.732330909624274
18.732396051012575
18.73248492884021
18.732595481497913
18.732725377759984
18.73287217811145
18.73303347676005
18.733207002965
18.733390687489933
18.733582687933858
18.73378138221315
18.733985340667346
18.73419327912083
18.734403999590935
18.73461632595701
18.734829034715496
18.73504078483495
18.735250049707588
18.735455055087343
18.735653730554297
18.735843678310736
18.736022176165037
18.736186217611387
18.736332602695423
18.73645808074636
18.736559539403103
18.73663422512748
18.73667996761126
18.73669537502726
18.839676232909984
18.839688344645214
18.839724402042876
18.839783595490328
18.839864650233967
18.839965924273766
18.840085525370373
18.84022142588248
18.840371568844713
18.84053394747887
18.84070666286397
18.840887951675278
18.841076189702516
18.841269878370348
18.841467614530806
18.84166804876686
18.84186983886424
18.84207159881249
18.84227184764341
18.842468961390676
18.842661131919478
18.84284633909178
18.84302233825576
18.843186676121746
18.84333673409311
18.84346980784536
18.843583220992873
18.843674466777394
18.843741366601893
18.84378222635661
18.84379596941605
18.94331016727198
18.943321266919362
18.943354344563886
18.94340875257807
18.943483462634884
18.943577133286144
18.94368819271877
18.94381492136134
18.943955531522292
18.944108229227613
18.944271262829528
18.944442949838482
18.944621685718996
18.944805939843235
18.944994237495546
18.94518513196734
18.945377172621818
18.945568869147362
18.945758656129943
18.945944861041838
18.946125678908015
18.946299158996993
18.946463204075723
18.946615592567575
18.946754020436565
18.946876168829057
18.946979794041106
18.94706283433105
18.947123525429006
18.9471605114579
18.947172937526112
19.03950837505775
19.03951863042741
19.039549215536606
19.03959959874848
19.039668929669954
19.039756086645628
19.03985973628585
19.03997839355373
19.040110482042635
19.04025438197625
19.04040847065669
19.04057114701267
19.040740842926425
19.04091602528139
19.04109518676384
19.041276828521315
19.0414594397932
19.04164147443073
19.041821328024557
19.041997318326313
19.042167671623947
19.042330519405567
19.04248390478848
19.04262580712649
19.042754180407755
19.042867009936504
19.0429623835609
19.043038572865054
19.043094118512922
19.043127910357633
19.043139253228713
19.128265949962973
19.1282754876086
19.12830394881628
19.12835088650748
19.128415580968976
19.12849707381163
19.128594211532757
19.128705689760597
19.12883009938741
19.128965963961406
19.129111773269116
19.12926600523367
19.129427138248502
19.12959365711754
19.129764050131705
19.129936799673803
19.130110370783157
19.130283197256002
19.13045366850669
19.13062011939546
19.130780825091115
19.13093400445338
19.131077830674847
19.131210456236616
19.131330047214444
19.131434830579902
19.131523150889056
19.13159353267133
19.131644744440457
19.131675857590213
19.13168629407028
19.2095980945189
19.20960701252133
19.20963363644183
19.209677581930702
19.209738226874215
19.20981473609659
19.209906093815626
19.210011136667074
19.21012858950185
19.210257094747927
19.210395240429744
19.210541579527117
19.210694642503167
19.210852945692167
19.211014992806685
19.211179271426623
19.211344248315534
19.211508362823903
19.211670021116667
19.21182759296461
19.21197941264482
19.212123786751704
19.212259007171152
19.212383375304704
19.21249523238017
19.21259299902156
19.21267522077301
19.212740616664867
19.212788128005254
19.212816962475234
19.212826629366457
19.283537972360847
19.283546349349653
19.283571366507097
19.283612686807665
19.283669762231366
19.283741852053847
19.28382804749232
19.283927296733978
19.284038433167236
19.284160198710897
19.284291267425257
19.284430262634835
19.284575769242878
19.28472634361939
19.284880518200346
19.28503680226802
19.285193682269963
19.285349620671507
19.285503055639566
19.285652402885333
19.28579606077745
19.28593242098969
19.286059882632554
19.286176875252572
19.286281885548114
19.28637349070497
19.28645039539063
19.286511470126207
19.286555789127124
19.286582663946405
19.286591670045457
19.350133920146916
19.35014182173866
19.35016542514328
19.35020442960038
19.35025834420204
19.35032650169356
19.350408077576574
19.35050210940669
19.350607519472536
19.35072313361319
19.35084770138182
19.350979911286714
19.3511184027089
19.351261776670007
19.351408602557672
19.351557421987025
19.351706752756275
19.351855091685387
19.35200091825925
19.352142700061012
19.3522789007596
19.35240799250199
19.35252847048279
19.352638874553573
19.352737812844317
19.352823990136606
19.352896238355193
19.352953547392573
19.35299509500667
19.353020273003153
19.353028707689326
19.409446528474668
19.40945401188369
19.409476370375227
19.40951333135512
19.409564448515592
19.409629112464394
19.409706565862805
19.409795918596355
19.409896166368874
19.410006206154694
19.410124853688483
19.410250857164375
19.41038290869468
19.410519655553983
19.410659708338176
19.410801647001144
19.4109440274031
19.411085387007716
19.411224251340755
19.41135914191981
19.411488586151357
19.411611130729064
19.41172535621613
19.411829897276306
19.41192346370276
19.412004864873406
19.412073035288554
19.412127059786265
19.41216619763817
19.41218990335552
19.412197842779324
19.461544192905766
19.461551310237365
19.461572578035273
19.461607745796663
19.4616564023696
19.461717984326953
19.461791788250544
19.461876982920128
19.46197262489577
19.46207767146604
19.462190996075797
19.462311400783648
19.462437627264347
19.46256836826988
19.462702276730916
19.462837973299855
19.462974054709278
19.463109101477585
19.463241686325876
19.46337038380134
19.46349378140018
19.46361049348353
19.463719175636392
19.463818543624306
19.463907392289695
19.463984616933832
19.46404923508304
19.464100407523865
19.46413745813785
19.464159890805956
19.46416740235819
19.506500163243572
19.506506963798927
19.506527287193094
19.5065609003236
19.506607419853445
19.50666631897508
19.50673693763414
19.50681849256161
19.506910090636268
19.507010739975474
19.507119363782287
19.507234811816808
19.50735587097782
19.507481276820496
19.50760972325633
19.507739871116648
19.50787035774572
19.50799980608634
19.508126834426626
19.508250067139514
19.508368146557544
19.508479747095283
19.50858358927075
19.5086784575362
19.50876321744836
19.508836834656027
19.50889839380263
19.50894711644497
19.5089823777509
19.509003720560383
19.509010866063324
19.544387618473316
19.544394150319803
19.54441367222723
19.54444596474547
19.544490666445878
19.544547279537344
19.544615178604275
19.544693619083834
19.544781748998457
19.544878618678577
19.544983193408765
19.545094364127817
19.545210957641917
19.545331748106797
19.545455467090783
19.545580812811625
19.545706460549788
19.54583107265857
19.545953309189468
19.546071839342325
19.54618535377311
19.546292578736562
19.546392289735515
19.54648332839412
19.54656461825523
19.546635181922873
19.54669415780521
19.54674081572036
19.546774571289816
19.546794997929688
19.546801835884914
19.575276518105245
19.575282829075327
19.575301691930576
19.57533289776252
19.575376102114145
19.575430829784292
19.575496482504896
19.57557234630898
19.575657602081456
19.575751334287645
19.575852542722657
19.57596015262122
19.57607302456359
19.576189965876868
19.576309740905753
19.57643108067984
19.576552693854772
19.576673277323792
19.576791527405064
19.57690615172578
19.57701588175732
19.577119486880306
19.577215787679194
19.57730367203274
19.577382109846802
19.577450168801537
19.577507029490683
19.577551999332766
19.577584525291037
19.57760420437241
19.577610791483444
19.599229606354367
19.59923574461402
19.59925409200028
19.599284447460636
19.599326479218433
19.59937972901734
19.599443619060057
19.599517458605284
19.599600453685305
19.5996917151329
19.5997902696826
19.599895069645513
19.600005002573266
19.6001189025673
19.6002355606587
19.600353734740228
19.6004721608338
19.60058956407886
19.60070467026481
19.600816217966518
19.600922971183522
19.601023733290823
19.601117360030198
19.601202774994036
19.60127898356541
19.601345087646628
19.601400299644887
19.60144395517755
19.601475524609608
19.60149462250468
19.601501014657025
19.61629913265955
19.616305146949408
19.616323124270235
19.616352869015728
19.616394058216937
19.61644624542181
19.616508867148752
19.61658124897867
19.616662614719566
19.6167520939686
19.61684873277485
19.616951503015862
19.617059311887534
19.617171013132605
19.617285417472246
19.61740130269093
19.617517425094423
19.617632530720446
19.617745367070807
19.617854695382757
19.617959303305618
19.61805801874314
19.618149722614895
19.61823336390846
19.61830797307172
19.61837267604734
19.618426707481465
19.618469422623487
19.618500308077753
19.61851899056162
19.618525243394206
19.626524552244508
19.626530491878096
19.626548246315167
19.626577623156187
19.626618304624856
19.62666985124172
19.626731708002946
19.62680321018619
19.62688359219995
19.626971994879913
19.62706747589845
19.627169018966757
19.627275543219742
19.62738591439049
19.627498955262638
19.627613455833245
19.627728184868204
19.627841901228503
19.62795336570396
19.628061353349374
19.628164666169233
19.628262146885096
19.628352691553832
19.628435264361897
19.628508910695768
19.628572770773104
19.628626092403202
19.62866824242451
19.62869871700729
19.62871715001657
19.628723319192243
19.629930254452898
19.62993616915226
19.629953849144968
19.629983103090744
19.630023614929566
19.63007494748884
19.63013654857302
19.630207756676995
19.630287809732778
19.6303758523197
19.630470945990893
19.63057207841796
19.630678172741014
19.630788098724068
19.630900683212683
19.631014720320607
19.63112898301498
19.631242234478112
19.631353239972196
19.63146077919424
19.631563658961323
19.63166072695111
19.63175088427188
19.63183310017066
19.63190642499769
19.63197000370535
19.632023088461892
19.632065049938447
19.632095387465494
19.632113737267517
19.632119878542948
