# vtk DataFile Version 2.0
Unstructured Grid Example
ASCII
DATASET UNSTRUCTURED_GRID

POINTS 961 float
0.400000004 0.01999999956 0
0.3866666556 0.01999999956 0
0.3733333348 0.01999999956 0
0.3600000144 0.01999999956 0
0.346666664 0.01999999956 0
0.3333333432 0.01999999956 0
0.3199999928 0.01999999956 0
0.3066666724 0.01999999956 0
0.293333322 0.01999999956 0
0.2800000012 0.01999999956 0
0.2666666804 0.01999999956 0
0.25333333 0.01999999956 0
0.2399999948 0.01999999956 0
0.226666674 0.01999999956 0
0.2133333384 0.01999999956 0
0.2000000028 0.01999999956 0
0.1866666676 0.01999999956 0
0.173333332 0.01999999956 0
0.1599999964 0.01999999956 0
0.1466666608 0.01999999956 0
0.1333333404 0.01999999956 0
0.1199999972 0.01999999956 0
0.1066666692 0.01999999956 0
0.0933333336 0.01999999956 0
0.0799999984 0.01999999956 0
0.06666667 0.01999999956 0
0.0533333348 0.01999999956 0
0.03999999912 0.01999999956 0
0.02666666732 0.01999999956 0
0.01333333364 0.01999999956 0
0.0 0.01999999956 0
0.400000004 0.00666666684 0
0.3866666556 0.00666666684 0
0.3733333348 0.00666666684 0
0.3600000144 0.00666666684 0
0.346666664 0.00666666684 0
0.3333333432 0.00666666684 0
0.3199999928 0.00666666684 0
0.3066666724 0.00666666684 0
0.293333322 0.00666666684 0
0.2800000012 0.00666666684 0
0.2666666804 0.00666666684 0
0.25333333 0.00666666684 0
0.2399999948 0.00666666684 0
0.226666674 0.00666666684 0
0.2133333384 0.00666666684 0
0.2000000028 0.00666666684 0
0.1866666676 0.00666666684 0
0.173333332 0.00666666684 0
0.1599999964 0.00666666684 0
0.1466666608 0.00666666684 0
0.1333333404 0.00666666684 0
0.1199999972 0.00666666684 0
0.1066666692 0.00666666684 0
0.0933333336 0.00666666684 0
0.0799999984 0.00666666684 0
0.06666667 0.00666666684 0
0.0533333348 0.00666666684 0
0.03999999912 0.00666666684 0
0.02666666732 0.00666666684 0
0.01333333364 0.00666666684 0
0.0 0.00666666684 0
0.400000004 -0.00666666684 0
0.3866666556 -0.00666666684 0
0.3733333348 -0.00666666684 0
0.3600000144 -0.00666666684 0
0.346666664 -0.00666666684 0
0.3333333432 -0.00666666684 0
0.3199999928 -0.00666666684 0
0.3066666724 -0.00666666684 0
0.293333322 -0.00666666684 0
0.2800000012 -0.00666666684 0
0.2666666804 -0.00666666684 0
0.25333333 -0.00666666684 0
0.2399999948 -0.00666666684 0
0.226666674 -0.00666666684 0
0.2133333384 -0.00666666684 0
0.2000000028 -0.00666666684 0
0.1866666676 -0.00666666684 0
0.173333332 -0.00666666684 0
0.1599999964 -0.00666666684 0
0.1466666608 -0.00666666684 0
0.1333333404 -0.00666666684 0
0.1199999972 -0.00666666684 0
0.1066666692 -0.00666666684 0
0.0933333336 -0.00666666684 0
0.0799999984 -0.00666666684 0
0.06666667 -0.00666666684 0
0.0533333348 -0.00666666684 0
0.03999999912 -0.00666666684 0
0.02666666732 -0.00666666684 0
0.01333333364 -0.00666666684 0
0.0 -0.00666666684 0
0.400000004 -0.01999999956 0
0.3866666556 -0.01999999956 0
0.3733333348 -0.01999999956 0
0.3600000144 -0.01999999956 0
0.346666664 -0.01999999956 0
0.3333333432 -0.01999999956 0
0.3199999928 -0.01999999956 0
0.3066666724 -0.01999999956 0
0.293333322 -0.01999999956 0
0.2800000012 -0.01999999956 0
0.2666666804 -0.01999999956 0
0.25333333 -0.01999999956 0
0.2399999948 -0.01999999956 0
0.226666674 -0.01999999956 0
0.2133333384 -0.01999999956 0
0.2000000028 -0.01999999956 0
0.1866666676 -0.01999999956 0
0.173333332 -0.01999999956 0
0.1599999964 -0.01999999956 0
0.1466666608 -0.01999999956 0
0.1333333404 -0.01999999956 0
0.1199999972 -0.01999999956 0
0.1066666692 -0.01999999956 0
0.0933333336 -0.01999999956 0
0.0799999984 -0.01999999956 0
0.06666667 -0.01999999956 0
0.0533333348 -0.01999999956 0
0.03999999912 -0.01999999956 0
0.02666666732 -0.01999999956 0
0.01333333364 -0.01999999956 0
0.0 -0.01999999956 0
0.400000004 -0.03333333508 0
0.3866666556 -0.03333333508 0
0.3733333348 -0.03333333508 0
0.3600000144 -0.03333333508 0
0.346666664 -0.03333333508 0
0.3333333432 -0.03333333508 0
0.3199999928 -0.03333333508 0
0.3066666724 -0.03333333508 0
0.293333322 -0.03333333508 0
0.2800000012 -0.03333333508 0
0.2666666804 -0.03333333508 0
0.25333333 -0.03333333508 0
0.2399999948 -0.03333333508 0
0.226666674 -0.03333333508 0
0.2133333384 -0.03333333508 0
0.2000000028 -0.03333333508 0
0.1866666676 -0.03333333508 0
0.173333332 -0.03333333508 0
0.1599999964 -0.03333333508 0
0.1466666608 -0.03333333508 0
0.1333333404 -0.03333333508 0
0.1199999972 -0.03333333508 0
0.1066666692 -0.03333333508 0
0.0933333336 -0.03333333508 0
0.0799999984 -0.03333333508 0
0.06666667 -0.03333333508 0
0.0533333348 -0.03333333508 0
0.03999999912 -0.03333333508 0
0.02666666732 -0.03333333508 0
0.01333333364 -0.03333333508 0
0.0 -0.03333333508 0
0.400000004 -0.0466666668 0
0.3866666556 -0.0466666668 0
0.3733333348 -0.0466666668 0
0.3600000144 -0.0466666668 0
0.346666664 -0.0466666668 0
0.3333333432 -0.0466666668 0
0.3199999928 -0.0466666668 0
0.3066666724 -0.0466666668 0
0.293333322 -0.0466666668 0
0.2800000012 -0.0466666668 0
0.2666666804 -0.0466666668 0
0.25333333 -0.0466666668 0
0.2399999948 -0.0466666668 0
0.226666674 -0.0466666668 0
0.2133333384 -0.0466666668 0
0.2000000028 -0.0466666668 0
0.1866666676 -0.0466666668 0
0.173333332 -0.0466666668 0
0.1599999964 -0.0466666668 0
0.1466666608 -0.0466666668 0
0.1333333404 -0.0466666668 0
0.1199999972 -0.0466666668 0
0.1066666692 -0.0466666668 0
0.0933333336 -0.0466666668 0
0.0799999984 -0.0466666668 0
0.06666667 -0.0466666668 0
0.0533333348 -0.0466666668 0
0.03999999912 -0.0466666668 0
0.02666666732 -0.0466666668 0
0.01333333364 -0.0466666668 0
0.0 -0.0466666668 0
0.400000004 -0.0599999988 0
0.3866666556 -0.0599999988 0
0.3733333348 -0.0599999988 0
0.3600000144 -0.0599999988 0
0.346666664 -0.0599999988 0
0.3333333432 -0.0599999988 0
0.3199999928 -0.0599999988 0
0.3066666724 -0.0599999988 0
0.293333322 -0.0599999988 0
0.2800000012 -0.0599999988 0
0.2666666804 -0.0599999988 0
0.25333333 -0.0599999988 0
0.2399999948 -0.0599999988 0
0.226666674 -0.0599999988 0
0.2133333384 -0.0599999988 0
0.2000000028 -0.0599999988 0
0.1866666676 -0.0599999988 0
0.173333332 -0.0599999988 0
0.1599999964 -0.0599999988 0
0.1466666608 -0.0599999988 0
0.1333333404 -0.0599999988 0
0.1199999972 -0.0599999988 0
0.1066666692 -0.0599999988 0
0.0933333336 -0.0599999988 0
0.0799999984 -0.0599999988 0
0.06666667 -0.0599999988 0
0.0533333348 -0.0599999988 0
0.03999999912 -0.0599999988 0
0.02666666732 -0.0599999988 0
0.01333333364 -0.0599999988 0
0.0 -0.0599999988 0
0.400000004 -0.0733333304 0
0.3866666556 -0.0733333304 0
0.3733333348 -0.0733333304 0
0.3600000144 -0.0733333304 0
0.346666664 -0.0733333304 0
0.3333333432 -0.0733333304 0
0.3199999928 -0.0733333304 0
0.3066666724 -0.0733333304 0
0.293333322 -0.0733333304 0
0.2800000012 -0.0733333304 0
0.2666666804 -0.0733333304 0
0.25333333 -0.0733333304 0
0.2399999948 -0.0733333304 0
0.226666674 -0.0733333304 0
0.2133333384 -0.0733333304 0
0.2000000028 -0.0733333304 0
0.1866666676 -0.0733333304 0
0.173333332 -0.0733333304 0
0.1599999964 -0.0733333304 0
0.1466666608 -0.0733333304 0
0.1333333404 -0.0733333304 0
0.1199999972 -0.0733333304 0
0.1066666692 -0.0733333304 0
0.0933333336 -0.0733333304 0
0.0799999984 -0.0733333304 0
0.06666667 -0.0733333304 0
0.0533333348 -0.0733333304 0
0.03999999912 -0.0733333304 0
0.02666666732 -0.0733333304 0
0.01333333364 -0.0733333304 0
0.0 -0.0733333304 0
0.400000004 -0.086666666 0
0.3866666556 -0.086666666 0
0.3733333348 -0.086666666 0
0.3600000144 -0.086666666 0
0.346666664 -0.086666666 0
0.3333333432 -0.086666666 0
0.3199999928 -0.086666666 0
0.3066666724 -0.086666666 0
0.293333322 -0.086666666 0
0.2800000012 -0.086666666 0
0.2666666804 -0.086666666 0
0.25333333 -0.086666666 0
0.2399999948 -0.086666666 0
0.226666674 -0.086666666 0
0.2133333384 -0.086666666 0
0.2000000028 -0.086666666 0
0.1866666676 -0.086666666 0
0.173333332 -0.086666666 0
0.1599999964 -0.086666666 0
0.1466666608 -0.086666666 0
0.1333333404 -0.086666666 0
0.1199999972 -0.086666666 0
0.1066666692 -0.086666666 0
0.0933333336 -0.086666666 0
0.0799999984 -0.086666666 0
0.06666667 -0.086666666 0
0.0533333348 -0.086666666 0
0.03999999912 -0.086666666 0
0.02666666732 -0.086666666 0
0.01333333364 -0.086666666 0
0.0 -0.086666666 0
0.400000004 -0.1000000016 0
0.3866666556 -0.1000000016 0
0.3733333348 -0.1000000016 0
0.3600000144 -0.1000000016 0
0.346666664 -0.1000000016 0
0.3333333432 -0.1000000016 0
0.3199999928 -0.1000000016 0
0.3066666724 -0.1000000016 0
0.293333322 -0.1000000016 0
0.2800000012 -0.1000000016 0
0.2666666804 -0.1000000016 0
0.25333333 -0.1000000016 0
0.2399999948 -0.1000000016 0
0.226666674 -0.1000000016 0
0.2133333384 -0.1000000016 0
0.2000000028 -0.1000000016 0
0.1866666676 -0.1000000016 0
0.173333332 -0.1000000016 0
0.1599999964 -0.1000000016 0
0.1466666608 -0.1000000016 0
0.1333333404 -0.1000000016 0
0.1199999972 -0.1000000016 0
0.1066666692 -0.1000000016 0
0.0933333336 -0.1000000016 0
0.0799999984 -0.1000000016 0
0.06666667 -0.1000000016 0
0.0533333348 -0.1000000016 0
0.03999999912 -0.1000000016 0
0.02666666732 -0.1000000016 0
0.01333333364 -0.1000000016 0
0.0 -0.1000000016 0
0.400000004 -0.1133333372 0
0.3866666556 -0.1133333372 0
0.3733333348 -0.1133333372 0
0.3600000144 -0.1133333372 0
0.346666664 -0.1133333372 0
0.3333333432 -0.1133333372 0
0.3199999928 -0.1133333372 0
0.3066666724 -0.1133333372 0
0.293333322 -0.1133333372 0
0.2800000012 -0.1133333372 0
0.2666666804 -0.1133333372 0
0.25333333 -0.1133333372 0
0.2399999948 -0.1133333372 0
0.226666674 -0.1133333372 0
0.2133333384 -0.1133333372 0
0.2000000028 -0.1133333372 0
0.1866666676 -0.1133333372 0
0.173333332 -0.1133333372 0
0.1599999964 -0.1133333372 0
0.1466666608 -0.1133333372 0
0.1333333404 -0.1133333372 0
0.1199999972 -0.1133333372 0
0.1066666692 -0.1133333372 0
0.0933333336 -0.1133333372 0
0.0799999984 -0.1133333372 0
0.06666667 -0.1133333372 0
0.0533333348 -0.1133333372 0
0.03999999912 -0.1133333372 0
0.02666666732 -0.1133333372 0
0.01333333364 -0.1133333372 0
0.0 -0.1133333372 0
0.400000004 -0.1266666652 0
0.3866666556 -0.1266666652 0
0.3733333348 -0.1266666652 0
[...]
POINT_DATA 961
SCALARS Temp float 1
LOOKUP_TABLE default
0.7266179456507493
0.7556392986993006
0.7764660816094351
0.7916092256843386
0.8027047657043588
0.8108745670625053
0.816917327758373
0.8214079196575406
0.8247647574530164
0.8272944181462969
0.8292242018507718
0.830724709545625
0.8319263158839441
0.8329319894067985
0.8338268582124756
0.8346857982466136
0.8355803820398373
0.8365852664003314
0.8377849030413493
0.8392812156671701
0.8412029495253026
0.8437179805517243
0.8470490058517282
0.8514958371953506
0.8574653304710038
0.8655138609040494
0.8764078378182454
0.8912122364601829
0.9114254496587484
0.9392220795214927
0.9780515934565583
0.7669314242880785
0.7953889091720701
0.8159919979287397
0.8310522517972484
0.8421096924716343
0.8502638546685967
0.8563019049143687
0.860793226829965
0.8641533672873214
0.866687411055557
0.8686218920805898
0.8701270508983567
0.8713331346031464
0.8723431089520881
0.8732421686046723
0.8741052968858938
0.8750041885919222
0.8760136221504127
0.8772181518963645
0.8787197582163857
0.8806471544134713
0.8831680141562166
0.8865045384344822
0.8909555001374776
0.8969257436864997
0.9049678124977555
0.9158407529673702
0.9305943206811844
0.950695220635633
0.9782084480436612
1.0161249843438136
2.654370875114169
2.658598693054799
2.6703817416151416
2.681249280789581
2.690235891063808
2.697385930580559
2.7029842544459983
2.7073383757847647
2.710721060879228
2.71335869593269
2.7154344361009386
2.7170955424838543
2.7184613338097585
2.7196306235736936
2.72068833867744
2.721711437489677
2.7227744138058236
2.723954694772302
2.725338224442259
2.727025579936494
2.7291389617286557
2.7318302895102176
2.735290543276024
2.739759982490976
2.7455376477662776
2.752985273375107
2.762511602279204
2.7744953780574986
2.788994951270712
2.804712256716134
2.81035493619141
4.518287923203797
4.520595119578709
4.52625787156965
4.533333701378556
4.540042674607573
4.545859226759276
4.55069795581858
4.554640262834765
4.557820776071905
4.560381380725628
4.562453692316366
4.564153819729253
4.565582587373886
4.566828106252584
4.567969257762754
4.569079514123816
4.5702308939519005
4.571497994748576
4.57296213468261
4.574715614678393
4.57686601003351
4.579540192572885
4.58288720264051
4.587078178112137
4.592299066268962
4.598726901419093
4.606468320732056
4.61540761846344
4.624841154760143
4.632392978262875
4.635469830332268
6.376699801065391
6.377927665780767
6.3812460771218795
6.385739122065879
6.390523886753333
6.395019729044245
6.398987659370862
6.402371242217503
6.405202993727633
6.407553662578376
6.409506645535876
6.411145817410735
6.412550562332994
6.413794630826803
6.41494697633011
6.416073629021261
6.417240104522643
6.418514037350296
6.419967838742698
6.421681144229167
6.4237426710682195
6.426250810876521
6.429311617026713
6.433031844201121
6.437502424292514
6.442764017637722
6.448739200478258
6.4551072040015605
6.461091792441614
6.465513665512189
6.467150134728318
8.231789699779137
8.232537558430561
8.234606872835275
8.23756957621655
8.24093023412201
8.244293632313234
8.247418431904
8.250195731876996
8.252600357530875
8.254654096398138
8.256402410133804
8.257900903722877
8.259208144442358
8.26038239358822
8.261480642092007
8.26255898681439
8.263673742316278
8.26488285106484
8.266247255741792
8.267831859174859
8.269705552178205
8.271939518589917
8.274602471879138
8.277750796066066
8.281410243188773
8.285544594161419
8.290006491039145
8.294472233485052
8.298413191508823
8.301167353086564
8.302162970220134
10.084643169089825
10.085119471337162
10.086462288879591
10.088447344353156
10.090794275017556
10.093247008726348
10.095619831109165
10.097803879217926
10.099752133020404
10.101459219016329
10.10294499687276
10.104243193723487
10.10539434913466
10.106441889316825
10.107430267674285
10.10840441008496
10.109409910921293
10.110493531024018
10.111703623228747
10.113090075988735
10.114703252108644
10.116591211502218
10.118794161386397
10.121334825888825
10.124203080398072
10.127333839385603
10.130580026970591
10.133692387452449
10.136328156175527
10.138112455040666
10.138745561484452
11.93573872353848
11.936045505148623
11.936919975345617
11.9382397313987
11.93984310062908
11.941570316182887
11.943292473730585
11.94492283336612
11.946414432874338
11.94775123296264
11.9489384296467
11.949994485920907
11.950945503699334
11.951821676183773
11.95265528615744
11.953479758510683
11.954329346775518
11.955239073970269
11.956244592852705
11.957381603098067
11.958684391283956
11.960182963199678
11.96189808712727
11.963833628671575
11.96596576989069
11.968229926221433
11.970508871354278
11.97262943143505
11.974377560319379
11.97553691705962
11.975943812286783
13.785314004168734
13.785503346257677
13.786047016152398
13.786878855908038
13.787908465648053
13.78904189327241
13.790198194927523
13.791318127734584
13.792365532277842
13.793324072829996
13.79419230622176
13.794978907226115
13.795698906395783
13.79637108920763
13.797016367369437
13.797656862325073
13.798315434674716
13.799015391776887
13.799780127686326
13.800632431044606
13.801593160811812
13.802678959237868
13.803898640088256
13.805248071184092
13.806703706365754
13.808215901559798
13.809704526021072
13.811060724835952
13.812158511483606
13.812876821608747
13.813127119360306
15.633484782208365
15.63358379745133
15.633869687901045
15.634311826695027
15.634867456166521
15.635490704472904
15.63614034276135
15.636784486482709
15.637402089365033
15.637982075796456
15.63852134408166
15.639022544360714
15.639492165702272
15.639939114244164
15.640373749367457
15.640807276905553
15.64125137412164
15.641717905832344
15.642218599813477
15.642764539971223
15.643365323604312
15.644027729522431
15.644753753502737
15.645538012121248
15.646364730367127
15.647205023883213
15.648015723381647
15.648741324236351
15.649320256709608
15.649695212649156
15.649825175732856
17.48030652615242
17.48032746934308
17.480389019689284
17.480487574481753
17.48061783636661
17.480773646205773
17.480948805536794
17.481137713410774
17.48133575536913
17.481539445633345
17.48174639797982
17.481955187904116
17.48216517020962
17.482376293073287
17.482588921900533
17.482803678767343
17.483021296375547
17.483242474571433
17.483467729928325
17.48369722751698
17.483930586058243
17.484166655511803
17.484403270343538
17.484637012951048
17.484863030541597
17.485074992281124
17.485265282649358
17.485425514470293
17.48554738155679
17.485623752403807
17.48564978238844
17.58334790149837
17.583365206407308
17.58341625384869
17.583498578984006
17.58360849166439
17.58374158557559
17.58389326915046
17.584059210712162
17.584235650253838
17.584419557135103
17.584608667995898
17.584801432897866
17.584996910255
17.585194641333857
17.585394516659846
17.585596643176135
17.58580121602634
17.586008388932292
17.58621813954685
17.586430125134527
17.586643526229
17.586856883175336
17.587067933023825
17.587273478359663
17.587469318479354
17.587650298381774
17.587810523857172
17.587943773410323
17.58804409546608
17.588106514094036
17.588127709421308
17.68628233095303
17.68629691502884
17.686340060624918
17.68641003102842
17.686504188054123
17.686619312643337
17.68675195379851
17.68689873866043
17.68705661121614
17.68722297502154
17.68739575540118
17.687573390350387
17.687754774585983
17.687939178112856
17.688126148401295
17.688315405098884
17.688506733400242
17.688699873769764
17.688894408322973
17.68908964332976
17.689284489251662
17.68947734559677
17.689665998263436
17.68984755510667
17.690018438315853
17.690174467548736
17.690311055763313
17.690423525141284
17.69050752436914
17.690559492423162
17.690577087578482
17.78911497087173
17.789127470665402
17.789164533617168
17.7892249026944
17.78930664513968
17.789407359653527
17.78952440984561
17.789655140896382
17.7897970584945
17.78994794753273
17.790105937849937
17.790269516775787
17.790437502844004
17.790608994971016
17.790783302837077
17.790959866220604
17.791138170016385
17.79131765468158
17.791497624682457
17.791677156751867
17.79185501117769
17.7920295537494
17.792198694570036
17.79235986358887
17.792510032679225
17.79264580466456
17.792763577506715
17.79285978160948
17.79293117265706
17.792975142005382
17.792989994512073
17.891849688359148
17.891860558793297
17.89189284776763
17.891945622103616
17.892017432108716
17.892106448552646
17.892210621536393
17.892327832834948
17.89245602885248
17.892593315243317
17.892738017219862
17.892888700943605
17.89304416438438
17.893203407117007
17.893365582087174
17.893529935606786
17.89369574204288
17.893862233869708
17.89402853071119
17.89419357026495
17.89435604489276
17.894514350848674
17.894666554490424
17.894810390476803
17.89494329595016
17.895062493001962
17.895165120880694
17.89524841274787
17.895309902787144
17.89534763760598
17.895360360497
17.99448940374395
17.994498978922373
17.99452746033614
17.994574138058887
17.99463789925705
17.994717320598816
17.994810778129878
17.994916555245926
17.995032941304075
17.995158305386152
17.995291148131958
17.99543012534064
17.99557404830488
17.995721867222496
17.99587263878548
17.996025482815142
17.99617953375464
17.996333887936892
17.996487550524876
17.996639385290607
17.9967880708873
17.996932069554468
17.9970696109075
17.997198702152694
17.997317165131257
17.997422707792076
17.99751302848777
17.997585947436917
17.997639554612622
17.997672356144626
17.997683399169283
18.093746287880165
18.093754815287515
18.093780208076968
18.093821913184772
18.09387905673709
18.093950507525104
18.094034954168748
18.09413098231614
18.09423714796705
18.094352034331994
18.094474294930567
18.094602676248105
18.094736023015752
18.09487327049776
18.09501342360724
18.095155526567122
18.095298628160418
18.095441743374682
18.095583815157113
18.095723679269614
18.095860035437358
18.095991429655868
18.096116248962677
18.096232737374578
18.096339031314184
18.096433219463755
18.096513424252514
18.096577899886306
18.096625139063047
18.096653975968678
18.096663672524137
18.186308696520907
18.18631636212558
18.18633920846152
18.186376794649398
18.186428419111067
18.186493163884176
18.18656994961241
18.186657591256598
18.186754852916852
18.1868604914733
18.186973291848098
18.187092087438014
18.187215767754353
18.18734327644282
18.187473598707285
18.18760574095561
18.187738706965863
18.187871471105364
18.18800295191918
18.188131988686838
18.188257323570415
18.188377593249456
18.188491330361682
18.18859698158415
18.188692939567726
18.188777592176688
18.188849385964154
18.1889068996541
18.18894892199659
18.1889745253132
18.188983126136844
18.272144319508904
18.272151268735897
18.27217199412092
18.272206136228743
18.272253119448173
18.27231218340499
18.272382422726185
18.272462827650063
18.272552325352844
18.27264981347493
18.27275418881836
18.27286436523759
18.27297928221811
18.27309790656963
18.273219225790502
18.273342235240822
18.27346592275991
18.273589250944593
18.273711139931024
18.273830452821617
18.273945985819296
18.274056466152313
18.274160557422356
18.274256877898566
18.27434402844784
18.274420632732536
18.274485386740526
18.27453711427318
18.274574824408656
18.27459776478476
18.274605464947115
18.351223245769866
18.351229594799857
18.351248540269697
18.35127978267826
18.351322839688667
18.351377068729253
18.35144169618386
18.351515847324855
18.351598577803095
18.351688899538956
18.35178580413019
18.35188827833491
18.3519953128437
18.3521059063059
18.352219062912074
18.352333785164003
18.35244906490574
18.352563872533597
18.352677146761998
18.352787786643503
18.35289464740841
18.35299654255673
18.353092251377127
18.353180536489866
18.353260167922635
18.353329955898243
18.35338878969033
18.353435679912888
18.35346980146101
18.353490532677363
18.35349748684038
18.42351790656186
18.423523750170638
18.423541194736224
18.423569985401656
18.423609709695665
18.42365981404222
18.423719625535803
18.423788374284335
18.42386521772618
18.42394926080755
18.42403957522972
18.424135212837594
18.424235214222666
18.42433861421211
18.42444444242513
18.424551720153715
18.424659456178645
18.42476664118385
18.4248722427284
18.424975202082937
18.425074434083474
18.425168831925973
18.42525727578593
18.425338649196476
18.425411859701903
18.425475865712805
18.425529707245726
18.425572538513055
18.42560366044526
18.42562254991367
18.4256288829733
18.48900304366097
18.489008460752203
18.48902463729923
18.489051352053067
18.48908824540197
18.489134831628395
18.48919051544213
18.489254608902527
18.489326350499997
18.489404921083473
18.48948945988521
18.48957907617267
18.48967285752862
18.489769876239116
18.48986919192971
18.4899698514309
18.49007088810987
18.4901713201281
18.490270149229534
18.490366361039914
18.490458927700185
18.490546814366997
18.490628988288304
18.49070443390605
18.490772170605144
18.490831274889786
18.490880904976244
18.49092032623835
18.49094893620607
18.49096628671738
18.49097210136201
18.547656084763684
18.547661142335873
18.54767624906333
18.547701209213344
18.54773570349102
18.547779298303915
18.547831458564993
18.54789156072978
18.547958908053616
18.548032743371333
18.548112262653547
18.54819662526028
18.54828496185496
18.54837638132723
18.548469974869636
18.54856481798554
18.548659972367215
18.548754486948667
18.548847399447922
18.548937739117378
18.549024531269055
18.549106804811604
18.54918360140833
18.549253989351424
18.54931707891575
18.549372040882854
18.549418126491297
18.549454687608623
18.549481196268026
18.549497261752265
18.549502643920697
18.59945640065322
18.59946115669713
18.599475365497835
18.59949885080552
18.599531324236924
18.599572392423234
18.599621567146656
18.599678275587323
18.599741872786936
18.599811652106755
18.599886856908505
18.59996668970484
18.600050319719706
18.600136890112708
18.600225523041747
18.600315323190323
18.600405381464107
18.600494778046922
18.600582585900533
18.600667875222257
18.600749719232674
18.60082720230772
18.60089942901592
18.60096553688757
18.601024709832952
18.60107619383971
18.601119313425915
18.601153487916594
18.601178246999986
18.601193244159376
18.601198267056613
18.644386273949525
18.644390779593582
18.644404242277005
18.64442650064853
18.644457290051392
18.644496248169393
18.644542923254484
18.64459678237015
18.644657221818196
18.644723575892524
18.64479512714727
18.644871114690787
18.644950741430648
18.64503318145284
18.645117585749173
18.645203086808557
18.64528880359258
18.645373846005803
18.64545731976525
18.645538332026675
18.64561599799552
18.645689449370707
18.645757843164343
18.64582037352052
18.645876283596266
18.64592487909014
18.64596554207232
18.64599774438709
18.646021060306005
18.646035177320954
18.64603990441511
18.682429973599337
18.682434274737844
18.682447127766235
18.682468382671868
18.682497792914074
18.68253502000722
18.68257964038476
18.68263115221023
18.682688984326806
18.68275250377068
18.682821024985643
18.682893817463622
18.682970112722177
18.683049111749888
18.683129991173868
18.68321190858439
18.683294008395535
18.683375427297538
18.68345530006783
18.683532765982214
18.683606975947956
18.683677101084438
18.68374234129504
18.683801936298106
18.683855176308946
18.683901413924097
18.68394007600006
18.683970674946927
18.6839928192721
18.684006222470735
18.684010709782388
18.71357448919311
18.71357862774243
18.713590995894943
18.713611452139947
18.7136397635589
18.71367560966237
18.71371858829079
18.71376822141241
18.713823963015884
18.713885205733217
18.71395128928276
18.71402150762154
18.714095115706776
18.714171336956394
18.714249369701673
18.7143283930074
18.714407573132313
18.71448606964927
18.71456304189002
18.714637655871467
18.714709091748617
18.714776552432195
18.714839271922944
18.714896525713705
18.714947640559217
18.714992005137116
18.715029080497406
18.715058409829737
18.715079627491797
18.715092466542334
18.715096764422405
18.73780914763321
18.73781316253136
18.73782516182724
18.73784501018228
18.73787248458949
18.73790727769981
18.737949003058688
18.73799720020618
18.73805134183353
18.738110839785232
18.73817505295456
18.738243294084022
18.73831483636132
18.73838892087066
18.738464763223764
18.738541559705293
18.73861849412739
18.738694744390397
18.73876948934125
18.738841916026864
18.738911227335407
18.738976650600595
18.739037445733693
18.73909291514805
18.73914241286145
18.739185354277307
18.739221225619534
18.739249592625928
18.73927010851748
18.73928252058745
18.739286675137837
18.75512551616481
18.755129444190665
18.755141184291535
18.755160605317574
18.75518749100005
18.755221542947112
18.755262385447942
18.755309570119387
18.75536258257933
18.755420848041872
18.755483738847936
18.755550581029127
18.755620660787134
18.755693231927903
18.75576752259861
18.75584274163478
18.75591808565987
18.75599274592048
18.756065915400114
18.75613679626935
18.756204607631282
18.756268594096067
18.7563280337602
18.756382247797017
18.75643060910425
18.756472551493516
18.7565075784493
18.756535271112227
18.756555295551173
18.75656740873349
18.75657146297457
18.765517733289023
18.765521609756497
18.765533196006487
18.765552363318825
18.76557889933787
18.765612510882733
18.765652828508095
18.7656994108953
18.76575175125261
18.765809282679456
18.765871385488875
18.765937393634697
18.7660066011218
18.766078269426178
18.766151634287187
18.766225912164163
18.766300307468722
18.76637401954943
18.766446249943385
18.766516209930376
18.76658312832927
18.766646260047132
18.766704893964103
18.766758362326396
18.766806049129464
18.76684739896675
18.766881925402
18.766909218547937
18.766928951942653
18.766940888169405
18.76694488303107
18.768982190637946
18.768986050012078
18.768997585252187
18.76901666843446
18.769043088486605
18.76907655393831
18.76911669740343
18.76916307988875
18.769215197105645
18.769272484759806
18.769334325805858
18.769400056829795
18.769468974436524
18.76954034266445
18.7696133997949
18.769687364843293
18.769761444833406
18.769834841829415
18.76990676023081
18.769976414359046
18.77004303626898
18.77010588428833
18.7701642508707
18.7702174719231
18.77026493510256
18.770306088553564
18.770340449154464
18.770367609964882
18.770387246973755
18.770399124605724
18.77040309980663
