# vtk DataFile Version 2.0
Unstructured Grid Example
ASCII
DATASET UNSTRUCTURED_GRID

POINTS 961 float
0.400000004 0.01999999956 0
0.3866666556 0.01999999956 0
0.3733333348 0.01999999956 0
0.3600000144 0.01999999956 0
0.346666664 0.01999999956 0
0.3333333432 0.01999999956 0
0.3199999928 0.01999999956 0
0.3066666724 0.01999999956 0
0.293333322 0.01999999956 0
0.2800000012 0.01999999956 0
0.2666666804 0.01999999956 0
0.25333333 0.01999999956 0
0.2399999948 0.01999999956 0
0.226666674 0.01999999956 0
0.2133333384 0.01999999956 0
0.2000000028 0.01999999956 0
0.1866666676 0.01999999956 0
0.173333332 0.01999999956 0
0.1599999964 0.01999999956 0
0.1466666608 0.01999999956 0
0.1333333404 0.01999999956 0
0.1199999972 0.01999999956 0
0.1066666692 0.01999999956 0
0.0933333336 0.01999999956 0
0.0799999984 0.01999999956 0
0.06666667 0.01999999956 0
0.0533333348 0.01999999956 0
0.03999999912 0.01999999956 0
0.02666666732 0.01999999956 0
0.01333333364 0.01999999956 0
0.0 0.01999999956 0
0.400000004 0.00666666684 0
0.3866666556 0.00666666684 0
0.3733333348 0.00666666684 0
0.3600000144 0.00666666684 0
0.346666664 0.00666666684 0
0.3333333432 0.00666666684 0
0.3199999928 0.00666666684 0
0.3066666724 0.00666666684 0
0.293333322 0.00666666684 0
0.2800000012 0.00666666684 0
0.2666666804 0.00666666684 0
0.25333333 0.00666666684 0
0.2399999948 0.00666666684 0
0.226666674 0.00666666684 0
0.2133333384 0.00666666684 0
0.2000000028 0.00666666684 0
0.1866666676 0.00666666684 0
0.173333332 0.00666666684 0
0.1599999964 0.00666666684 0
0.1466666608 0.00666666684 0
0.1333333404 0.00666666684 0
0.1199999972 0.00666666684 0
0.1066666692 0.00666666684 0
0.0933333336 0.00666666684 0
0.0799999984 0.00666666684 0
0.06666667 0.00666666684 0
0.0533333348 0.00666666684 0
0.03999999912 0.00666666684 0
0.02666666732 0.00666666684 0
0.01333333364 0.00666666684 0
0.0 0.00666666684 0
0.400000004 -0.00666666684 0
0.3866666556 -0.00666666684 0
0.3733333348 -0.00666666684 0
0.3600000144 -0.00666666684 0
0.346666664 -0.00666666684 0
0.3333333432 -0.00666666684 0
0.3199999928 -0.00666666684 0
0.3066666724 -0.00666666684 0
0.293333322 -0.00666666684 0
0.2800000012 -0.00666666684 0
0.2666666804 -0.00666666684 0
0.25333333 -0.00666666684 0
0.2399999948 -0.00666666684 0
0.226666674 -0.00666666684 0
0.2133333384 -0.00666666684 0
0.2000000028 -0.00666666684 0
0.1866666676 -0.00666666684 0
0.173333332 -0.00666666684 0
0.1599999964 -0.00666666684 0
0.1466666608 -0.00666666684 0
0.1333333404 -0.00666666684 0
0.1199999972 -0.00666666684 0
0.1066666692 -0.00666666684 0
0.0933333336 -0.00666666684 0
0.0799999984 -0.00666666684 0
0.06666667 -0.00666666684 0
0.0533333348 -0.00666666684 0
0.03999999912 -0.00666666684 0
0.02666666732 -0.00666666684 0
0.01333333364 -0.00666666684 0
0.0 -0.00666666684 0
0.400000004 -0.01999999956 0
0.3866666556 -0.01999999956 0
0.3733333348 -0.01999999956 0
0.3600000144 -0.01999999956 0
0.346666664 -0.01999999956 0
0.3333333432 -0.01999999956 0
0.3199999928 -0.01999999956 0
0.3066666724 -0.01999999956 0
0.293333322 -0.01999999956 0
0.2800000012 -0.01999999956 0
0.2666666804 -0.01999999956 0
0.25333333 -0.01999999956 0
0.2399999948 -0.01999999956 0
0.226666674 -0.01999999956 0
0.2133333384 -0.01999999956 0
0.2000000028 -0.01999999956 0
0.1866666676 -0.01999999956 0
0.173333332 -0.01999999956 0
0.1599999964 -0.01999999956 0
0.1466666608 -0.01999999956 0
0.1333333404 -0.01999999956 0
0.1199999972 -0.01999999956 0
0.1066666692 -0.01999999956 0
0.0933333336 -0.01999999956 0
0.0799999984 -0.01999999956 0
0.06666667 -0.01999999956 0
0.0533333348 -0.01999999956 0
0.03999999912 -0.01999999956 0
0.02666666732 -0.01999999956 0
0.01333333364 -0.01999999956 0
0.0 -0.01999999956 0
0.400000004 -0.03333333508 0
0.3866666556 -0.03333333508 0
0.3733333348 -0.03333333508 0
0.3600000144 -0.03333333508 0
0.346666664 -0.03333333508 0
0.3333333432 -0.03333333508 0
0.3199999928 -0.03333333508 0
0.3066666724 -0.03333333508 0
0.293333322 -0.03333333508 0
0.2800000012 -0.03333333508 0
0.2666666804 -0.03333333508 0
0.25333333 -0.03333333508 0
0.2399999948 -0.03333333508 0
0.226666674 -0.03333333508 0
0.2133333384 -0.03333333508 0
0.2000000028 -0.03333333508 0
0.1866666676 -0.03333333508 0
0.173333332 -0.03333333508 0
0.1599999964 -0.03333333508 0
0.1466666608 -0.03333333508 0
0.1333333404 -0.03333333508 0
0.1199999972 -0.03333333508 0
0.1066666692 -0.03333333508 0
0.0933333336 -0.03333333508 0
0.0799999984 -0.03333333508 0
0.06666667 -0.03333333508 0
0.0533333348 -0.03333333508 0
0.03999999912 -0.03333333508 0
0.02666666732 -0.03333333508 0
0.01333333364 -0.03333333508 0
0.0 -0.03333333508 0
0.400000004 -0.0466666668 0
0.3866666556 -0.0466666668 0
0.3733333348 -0.0466666668 0
0.3600000144 -0.0466666668 0
0.346666664 -0.0466666668 0
0.3333333432 -0.0466666668 0
0.3199999928 -0.0466666668 0
0.3066666724 -0.0466666668 0
0.293333322 -0.0466666668 0
0.2800000012 -0.0466666668 0
0.2666666804 -0.0466666668 0
0.25333333 -0.0466666668 0
0.2399999948 -0.0466666668 0
0.226666674 -0.0466666668 0
0.2133333384 -0.0466666668 0
0.2000000028 -0.0466666668 0
0.1866666676 -0.0466666668 0
0.173333332 -0.0466666668 0
0.1599999964 -0.0466666668 0
0.1466666608 -0.0466666668 0
0.1333333404 -0.0466666668 0
0.1199999972 -0.0466666668 0
0.1066666692 -0.0466666668 0
0.0933333336 -0.0466666668 0
0.0799999984 -0.0466666668 0
0.06666667 -0.0466666668 0
0.0533333348 -0.0466666668 0
0.03999999912 -0.0466666668 0
0.02666666732 -0.0466666668 0
0.01333333364 -0.0466666668 0
0.0 -0.0466666668 0
0.400000004 -0.0599999988 0
0.3866666556 -0.0599999988 0
0.3733333348 -0.0599999988 0
0.3600000144 -0.0599999988 0
0.346666664 -0.0599999988 0
0.3333333432 -0.0599999988 0
0.3199999928 -0.0599999988 0
0.3066666724 -0.0599999988 0
0.293333322 -0.0599999988 0
0.2800000012 -0.0599999988 0
0.2666666804 -0.0599999988 0
0.25333333 -0.0599999988 0
0.2399999948 -0.0599999988 0
0.226666674 -0.0599999988 0
0.2133333384 -0.0599999988 0
0.2000000028 -0.0599999988 0
0.1866666676 -0.0599999988 0
0.173333332 -0.0599999988 0
0.1599999964 -0.0599999988 0
0.1466666608 -0.0599999988 0
0.1333333404 -0.0599999988 0
0.1199999972 -0.0599999988 0
0.1066666692 -0.0599999988 0
0.0933333336 -0.0599999988 0
0.0799999984 -0.0599999988 0
0.06666667 -0.0599999988 0
0.0533333348 -0.0599999988 0
0.03999999912 -0.0599999988 0
0.02666666732 -0.0599999988 0
0.01333333364 -0.0599999988 0
0.0 -0.0599999988 0
0.400000004 -0.0733333304 0
0.3866666556 -0.0733333304 0
0.3733333348 -0.0733333304 0
0.3600000144 -0.0733333304 0
0.346666664 -0.0733333304 0
0.3333333432 -0.0733333304 0
0.3199999928 -0.0733333304 0
0.3066666724 -0.0733333304 0
0.293333322 -0.0733333304 0
0.2800000012 -0.0733333304 0
0.2666666804 -0.0733333304 0
0.25333333 -0.0733333304 0
0.2399999948 -0.0733333304 0
0.226666674 -0.0733333304 0
0.2133333384 -0.0733333304 0
0.2000000028 -0.0733333304 0
0.1866666676 -0.0733333304 0
0.173333332 -0.0733333304 0
0.1599999964 -0.0733333304 0
0.1466666608 -0.0733333304 0
0.1333333404 -0.0733333304 0
0.1199999972 -0.0733333304 0
0.1066666692 -0.0733333304 0
0.0933333336 -0.0733333304 0
0.0799999984 -0.0733333304 0
0.06666667 -0.0733333304 0
0.0533333348 -0.0733333304 0
0.03999999912 -0.0733333304 0
0.02666666732 -0.0733333304 0
0.01333333364 -0.0733333304 0
0.0 -0.0733333304 0
0.400000004 -0.086666666 0
0.3866666556 -0.086666666 0
0.3733333348 -0.086666666 0
0.3600000144 -0.086666666 0
0.346666664 -0.086666666 0
0.3333333432 -0.086666666 0
0.3199999928 -0.086666666 0
0.3066666724 -0.086666666 0
0.293333322 -0.086666666 0
0.2800000012 -0.086666666 0
0.2666666804 -0.086666666 0
0.25333333 -0.086666666 0
0.2399999948 -0.086666666 0
0.226666674 -0.086666666 0
0.2133333384 -0.086666666 0
0.2000000028 -0.086666666 0
0.1866666676 -0.086666666 0
0.173333332 -0.086666666 0
0.1599999964 -0.086666666 0
0.1466666608 -0.086666666 0
0.1333333404 -0.086666666 0
0.1199999972 -0.086666666 0
0.1066666692 -0.086666666 0
0.0933333336 -0.086666666 0
0.0799999984 -0.086666666 0
0.06666667 -0.086666666 0
0.0533333348 -0.086666666 0
0.03999999912 -0.086666666 0
0.02666666732 -0.086666666 0
0.01333333364 -0.086666666 0
0.0 -0.086666666 0
0.400000004 -0.1000000016 0
0.3866666556 -0.1000000016 0
0.3733333348 -0.1000000016 0
0.3600000144 -0.1000000016 0
0.346666664 -0.1000000016 0
0.3333333432 -0.1000000016 0
0.3199999928 -0.1000000016 0
0.3066666724 -0.1000000016 0
0.293333322 -0.1000000016 0
0.2800000012 -0.1000000016 0
0.2666666804 -0.1000000016 0
0.25333333 -0.1000000016 0
0.2399999948 -0.1000000016 0
0.226666674 -0.1000000016 0
0.2133333384 -0.1000000016 0
0.2000000028 -0.1000000016 0
0.1866666676 -0.1000000016 0
0.173333332 -0.1000000016 0
0.1599999964 -0.1000000016 0
0.1466666608 -0.1000000016 0
0.1333333404 -0.1000000016 0
0.1199999972 -0.1000000016 0
0.1066666692 -0.1000000016 0
0.0933333336 -0.1000000016 0
0.0799999984 -0.1000000016 0
0.06666667 -0.1000000016 0
0.0533333348 -0.1000000016 0
0.03999999912 -0.1000000016 0
0.02666666732 -0.1000000016 0
0.01333333364 -0.1000000016 0
0.0 -0.1000000016 0
0.400000004 -0.1133333372 0
0.3866666556 -0.1133333372 0
0.3733333348 -0.1133333372 0
0.3600000144 -0.1133333372 0
0.346666664 -0.1133333372 0
0.3333333432 -0.1133333372 0
0.3199999928 -0.1133333372 0
0.3066666724 -0.1133333372 0
0.293333322 -0.1133333372 0
0.2800000012 -0.1133333372 0
0.2666666804 -0.1133333372 0
0.25333333 -0.1133333372 0
0.2399999948 -0.1133333372 0
0.226666674 -0.1133333372 0
0.2133333384 -0.1133333372 0
0.2000000028 -0.1133333372 0
0.1866666676 -0.1133333372 0
0.173333332 -0.1133333372 0
0.1599999964 -0.1133333372 0
0.1466666608 -0.1133333372 0
0.1333333404 -0.1133333372 0
0.1199999972 -0.1133333372 0
0.1066666692 -0.1133333372 0
0.0933333336 -0.1133333372 0
0.0799999984 -0.1133333372 0
0.06666667 -0.1133333372 0
0.0533333348 -0.1133333372 0
0.03999999912 -0.1133333372 0
0.02666666732 -0.1133333372 0
0.01333333364 -0.1133333372 0
0.0 -0.1133333372 0
0.400000004 -0.1266666652 0
0.3866666556 -0.1266666652 0
0.3733333348 -0.1266666652 0
[...]
POINT_DATA 961
SCALARS Temp float 1
LOOKUP_TABLE default
0.7530621439597506
0.7831401078241165
0.8047260424454113
0.8204220069713997
0.8319233852231889
0.8403927511905008
0.8466577948210243
0.8513142639805866
0.8547957751458078
0.8574200499744397
0.85942265668799
0.8609804065527779
0.8622284242775643
0.8632734336475094
0.864203670612568
0.8650967473287265
0.8660268536043497
0.8670713769635284
0.8683178574193249
0.8698719438163631
0.8718670833402208
0.8744772780813423
0.877933345455148
0.8825460213620974
0.8887369760621938
0.8970828309172274
0.9083778689671141
0.9237257789446387
0.9446794012697648
0.9734923315271802
1.013739426917201
0.7948362293861804
0.8243297381056948
0.845683842089232
0.8612939011781777
0.8727558002848094
0.8812089693536935
0.8874691470195148
0.8921263927856553
0.8956113505079293
0.8982401948535415
0.9002476995346248
0.9018103017962041
0.9030629936853011
0.9041124956393999
0.9050471121268115
0.9059445661217056
0.9068791736724027
0.9079284478652048
0.9091800345749201
0.9107396408805681
0.9127406803274596
0.9153569448109088
0.9188187369630509
0.9234357153134068
0.9296274646684715
0.9379666341912076
0.9492398748242666
0.9645351001259225
0.9853723055722736
1.0138914934310579
1.0531921955911474
2.750653149997767
2.7550352521702837
2.767248318826916
2.778513222461605
2.787829266836936
2.795242314950965
2.801047507097663
2.8055634881200224
2.809072907426776
2.8118103575538185
2.8139656343197825
2.815691338308589
2.8171111142098892
2.8183273575392107
2.8194280734527806
2.820493009750151
2.8215993609218084
2.822827362352915
2.824266076895418
2.8260197333058157
2.82821497036777
2.8310092264544258
2.8346004189325082
2.8392375327521684
2.84523046389836
2.852954068002558
2.8628318942514683
2.8752563564699694
2.89028773281643
2.9065803325861532
2.912429542992909
4.682084619608907
4.684476225327768
4.690346364204415
4.697681788526182
4.704637691621553
4.710669288437371
4.7156879881012745
4.719778086188589
4.723079053338632
4.725737889222774
4.727890955813705
4.729658547974669
4.731145122345579
4.732441961134519
4.733630782138241
4.734787697841806
4.735987314780459
4.737306912625255
4.738830736488254
4.740654413749363
4.7428894011816585
4.745667152380216
4.749142092380437
4.753491541289632
4.758908156473976
4.765575340040204
4.77360350617691
4.782872586982457
4.792653101754028
4.800482232538141
4.803671955896959
6.607800369953518
6.6090734111419325
6.612514042255046
6.617172964905123
6.622135060546786
6.626798476191627
6.630915446703034
6.634427409602466
6.637367996558467
6.6398104674457965
6.641841193703778
6.643547044269838
6.645010235149798
6.646307144393671
6.647509178720414
6.648684715335406
6.649901598262938
6.651229867577738
6.6527445138306
6.654528014380079
6.656672257798132
6.659279157019189
6.662458561669056
6.666321041704066
6.670960757922291
6.67641975372481
6.682617666331054
6.689221895601557
6.695427748407065
6.70001276831821
6.701709561059983
8.530059965367485
8.530835590914867
8.532981849653396
8.536055055583796
8.539541684195296
8.54303206724852
8.546276006917301
8.549160561686952
8.551659563681193
8.553795516811714
8.555615461006184
8.557176948572256
8.55854060145324
8.559766723911222
8.560914303011444
8.562041398646482
8.563206295957134
8.56446896699422
8.56589249302353
8.567544059268872
8.569494983343194
8.571818957823474
8.574587112041272
8.577857792209011
8.581657589810158
8.58594885810926
8.59057875059687
8.595211640869875
8.599299498835645
8.602156060495092
8.603188649116742
10.44998549112403
10.450479745530004
10.451873274519208
10.45393360419417
10.456370115696336
10.458917351164535
10.461382761930045
10.463653441578128
10.465680573249877
10.467458499094043
10.46900771013116
10.470363067092011
10.471566488749879
10.472662883586233
10.47369822298534
10.47471896666485
10.475772266313605
10.476906482098084
10.478171624011054
10.479619293623147
10.481301584118963
10.483268201643696
10.485560712626087
10.488202561759715
10.491183145423086
10.494434892984936
10.497805252480015
10.501035767617898
10.503771070684488
10.505622526286006
10.506279423380214
12.368070045920295
12.368388685332473
12.36929704862781
12.370668246997099
12.37233467421218
12.374130683973657
12.375922603602728
12.377620449703539
12.379175456563486
12.380570900262649
12.381812059519579
12.382917958004048
12.383915532014765
12.384835954489732
12.38571256114891
12.38657986922754
12.387473253441227
12.388428885436026
12.389483589657043
12.39067423989566
12.392036246519263
12.393600584629898
12.39538865672713
12.397404348333199
12.399622854223278
12.401977119002446
12.404345530505893
12.406548496370887
12.408364073769018
12.409567959994298
12.409990449335316
14.28455725291165
14.284754260181387
14.285320028898369
14.286185963020237
14.287258323685876
14.288439673822971
14.28964604352991
14.29081594101552
14.291911787214286
14.292916538588422
14.293828577855063
14.294656766599134
14.29541654714071
14.296127248194303
14.296810397997431
14.297488775535937
14.29818592408087
14.298925849313877
14.299732647294263
14.30062978821302
14.301638744836742
14.302776623075411
14.304052419233148
14.305461716908454
14.306979983958296
14.308555646105392
14.310105539944669
14.31151674228742
14.312658588956515
14.313405536894107
14.3136657812613
16.19956461570505
16.19966809648518
16.19996696731595
16.200429456282492
16.20101119984112
16.201664588753104
16.202346809076577
16.2030247159096
16.203676383321717
16.204290206350457
16.204862833104748
16.2053968630946
16.205898866004386
16.206377909663324
16.206844562646424
16.20731026688512
16.20778695067883
16.208286736101577
16.208821604207575
16.209402871330262
16.210040317154174
16.210740805836068
16.211506251121858
16.21233092705776
16.213198347089854
16.214078448772295
16.214926377075475
16.21568450709236
16.216288945267813
16.21668023512764
16.2168158284567
18.11314734403082
18.113170005609675
18.11323665414702
18.11334352471487
18.113485075764828
18.113654852843165
18.113846341913558
18.114053630233876
18.114271810846446
18.11449713107291
18.11472696400214
18.11495966717356
18.115194395157552
18.115430908837293
18.11566939477497
18.11591030072318
18.11615418641251
18.116401576940568
18.116652809004385
18.116907858674264
18.117166141534998
18.117426284315936
18.117685871012462
18.11794119977278
18.11818709482556
18.118416863827953
18.118622499879535
18.118795214684134
18.118926323587424
18.119008380223335
18.11903633007842
18.21991106513717
18.219929966601406
18.219985761652644
18.220075864415023
18.220196398634855
18.220342725875668
18.22050999666248
18.220693612670072
18.220889551202372
18.221094529760016
18.221306047022257
18.221522328582978
18.221742219712212
18.221965057302693
18.22219053336793
18.222418559311834
18.222649135229346
18.222882217696505
18.2231175823868
18.22335467666753
18.22359245969131
18.22382923517211
18.224062484221612
18.224288731522524
18.22450347575096
18.22470124213357
18.22487580698861
18.22502062607342
18.225129454828725
18.2251970808557
18.22522002989277
18.32656051280388
18.326576615318526
18.326624283467225
18.326701685414868
18.326806034175807
18.32693392039184
18.327081674872883
18.327245690800822
18.327422672489817
18.327609784447453
18.32780471755596
18.328005681229197
18.32821134711875
18.328420766778137
18.328633272282087
18.328848369102097
18.329065627836957
18.32928457210996
18.329504563040125
18.329724679700817
18.32994359697961
18.330159468492607
18.330369822131537
18.330571495466167
18.33076062964518
18.330932757378704
18.33108300754306
18.3312064340341
18.33129844951881
18.331355307131933
18.331374545859315
18.433100985383998
18.433114959184003
18.43315641727459
18.433224024027474
18.433315722008302
18.433428947212164
18.433560871929437
18.433708630143638
18.43386950437371
18.434041049857516
18.43422116444938
18.434408103251496
18.43460045311263
18.434797082083563
18.43499706933219
18.435199623605442
18.435403997474147
18.43560939678662
18.435814888090956
18.436019305870484
18.436221162878255
18.436418571582365
18.436609182769864
18.436790162454944
18.43695821662883
18.437109685409766
18.437240714897356
18.43734750457139
18.43742661208382
18.43747527597721
18.437491704378047
18.5395364250899
18.539548752477334
18.5395853891569
18.53964533386283
18.539727027684734
18.539828496551085
18.53994751682232
18.540081774048947
18.540229002200874
18.54038708293458
18.540554109920112
18.540728412698805
18.540908549016976
18.541093275733143
18.541281500979608
18.54147222412319
18.54166447049616
18.541857221269588
18.542049342325875
18.542239515093936
18.542426173215546
18.542607452378665
18.542781157418393
18.542944762824682
18.543095450127353
18.543230195332264
18.543345907702005
18.54343961445718
18.543508676759345
18.543551009862995
18.543565274849207
18.645869772342394
18.645880810824043
18.645913661293573
18.64596755223101
18.6460412711396
18.64613326085641
18.64624173440413
18.646364787793882
18.646500503718443
18.646647029248367
18.64680263145397
18.646965723626106
18.647134867509656
18.64730875842358
18.64748619392348
18.647666031112212
18.647847138907487
18.64802834587989
18.648208387802853
18.648385858161465
18.648559165350477
18.648726502833277
18.648885834585027
18.649034908193336
18.64917129532379
18.649292467876258
18.649395907935986
18.64947924561332
18.649540413718267
18.649577800597275
18.64959038032729
18.748626762024635
18.748636769903246
18.748666584679125
18.74871559571794
18.74878283538477
18.748867045385722
18.748966757754193
18.749080375791976
18.749206251613792
18.749342746371187
18.74948827690149
18.749641341043358
18.74980052507736
18.749964498149353
18.75013199298313
18.750301776797695
18.750472617957584
18.75064324883594
18.75081232885001
18.75097841073072
18.7511399132759
18.751295105750046
18.751442104837587
18.751578893816443
18.75170336146736
18.75181336630698
18.751906823004937
18.751981805662403
18.752036659890365
18.752070110718222
18.75208135282046
18.844311530307724
18.844320692283123
18.844348009242264
18.844392985384765
18.844454829265313
18.844532500291855
18.844624766761726
18.844730264557775
18.844847555567725
18.844975174247317
18.845111666214862
18.845255611323598
18.845405633616895
18.845560401781743
18.84571861856072
18.845879002109182
18.846040264065763
18.846201084519432
18.846360087422642
18.846515819105853
18.846666732549046
18.84681118157283
18.846947424813457
18.847073647240787
18.84718799555093
18.847288631500234
18.847373799744492
18.847441905751754
18.84749159803459
18.847521845585987
18.84753200160191
18.932899590320023
18.93290804914333
18.932933285457928
18.93297488668705
18.933032189972266
18.93310431531134
18.933190207838564
18.933288680889962
18.933398460475747
18.93351822139175
18.933646619064856
18.9337823100415
18.933923962972138
18.93407026294526
18.934219907130007
18.934371594011008
18.93452401030738
18.934675815419325
18.93482562646459
18.93497200608482
18.93511345509335
18.935248413289134
18.93537526757369
18.935492373791938
18.935598088060647
18.935690810816126
18.935769040275073
18.93583143176139
18.935876858858403
18.93590446988622
18.9359137337328
19.014374556897387
19.01438242531855
19.014405911538674
19.01444466414999
19.014498115392957
19.014565505169582
19.014645912383312
19.014738286953296
19.014841484122755
19.014954292680798
19.015075461368287
19.01520371691029
19.015337775245655
19.01547634833769
19.01561814424755
19.01576186223126
19.01590618637825
19.016049777315683
19.01619126456078
19.016329241240687
19.016462262734457
19.016588851890425
19.016707509468297
19.016816735284678
19.016915055616362
19.017001059636986
19.017073441875695
19.01713104791604
19.01717292054103
19.017198341614137
19.017206865642713
19.088727444776872
19.088734813883967
19.08875681783785
19.08879315077453
19.088843316139112
19.088906644391425
19.088982316674226
19.089069388971176
19.08916681900351
19.08927348854701
19.089388225557347
19.08950982006134
19.089637035244703
19.089768615823598
19.08990329124558
19.090039775094837
19.090176763746324
19.09031293352149
19.09044693849731
19.09057741028114
19.09070296087686
19.090822190769973
19.090933700569586
19.091036111012077
19.09112808687225
19.09120836730538
19.09127579994199
19.0913293765741
19.09136826853694
19.091391858310985
19.091399764558673
19.155955775865735
19.15596272100129
19.155983464818465
19.15601773575778
19.15606509117302
19.156124930632714
19.156196514163817
19.15627898079784
19.156371370056426
19.15647263987454
19.15658168540798
19.156697353145134
19.15681845168388
19.156943761066962
19.157072038171755
19.15720201924392
19.15733242223724
19.157461947995657
19.15758928206307
19.157713098095012
19.157832063653647
19.157944850111384
19.15805014481028
19.158146669793126
19.15823320274566
19.158308602530244
19.158371836945612
19.15842201103897
19.15845839471606
19.158480447034748
19.158487835245875
19.21606292457769
19.216069509592273
19.216089181983545
19.21612169628207
19.216166651035763
19.21622349901132
19.216291561576668
19.21637004322323
19.216458049096946
19.216554599664907
19.216658646978104
19.216769087346748
19.216884771752973
19.21700451576215
19.217127106427814
19.217251307070118
19.217375862283944
19.2174995020482
19.217620946422663
19.217738911533722
19.217852117364853
19.21795929877046
19.218059217753
19.218150680956164
19.218232558154487
19.218303804030768
19.218363481149936
19.21841078282727
19.218445055096012
19.21846581576286
19.218472769192203
19.26905618261088
19.269062462962076
19.269081228192626
19.269112252812004
19.269155167049966
19.269209464863792
19.26927451555884
19.269349575419152
19.269433802346892
19.269526268124665
19.26962597274148
19.269731855931227
19.26984280722728
19.269957676198757
19.270075280391076
19.27019441169407
19.270313843253362
19.270432335675558
19.27054864377515
19.27066152435229
19.270769745314674
19.270872097332333
19.27096740601122
19.27105454826483
19.271132468817573
19.271200199072133
19.2712568764758
19.271301763365667
19.27133426482316
19.271353943953844
19.271360533627586
19.3149464959197
19.314952520942732
19.31497052542192
19.315000299205195
19.315041496940957
19.315093644527504
19.315156148754376
19.315228306854642
19.315309319033354
19.3153982989626
19.315494286644935
19.315596259066037
19.315703139925226
19.315813810038183
19.315927115972865
19.316041877528342
19.316156895981887
19.316270961771284
19.31638286267371
19.316491392808175
19.316595362624504
19.316693610895705
19.316785016679457
19.31686851471893
19.31694311036518
19.317007896208324
19.3170620687358
19.317104944207234
19.317135973507536
19.317154754697285
19.317161042567324
19.353746234631625
19.35375204922303
19.353769426402014
19.353798167744962
19.35383794663638
19.35388831361444
19.35394870459707
19.35401844894655
19.35409678046454
19.354182846598626
19.35427572021194
19.354374409557074
19.354477867728722
19.354585003135455
19.354694688593742
19.354805769569186
19.354917073345153
19.355027417727715
19.355135620206354
19.355240507776365
19.355340927476043
19.355435758528294
19.35552392405224
19.355604405654763
19.355676257116627
19.3557386193254
19.355790734916376
19.355831961966167
19.355861786662906
19.355879833887442
19.355885875200322
19.38546868941538
19.38547433528202
19.385491209292905
19.385519121863126
19.385557760538966
19.38560669456807
19.38566538212394
19.385733177317277
19.385809340091587
19.385893044502943
19.38598338968623
19.38607940931946
19.386180080849634
19.386284335978065
19.386391070048013
19.386499150799082
19.386607428157262
19.3867147436329
19.386819940139603
19.38692187235234
19.38701941757855
19.387111487940608
19.38719704184362
19.387275097917886
19.387344747761787
19.387405169608897
19.387455641489392
19.38749555334287
19.387524418119146
19.38754188095323
19.387547726038214
19.410126509034477
19.410132025630503
19.41014851401997
19.4101757910659
19.41021355467055
19.410261387814245
19.410318765088352
19.41038505898002
19.41045954900069
19.410541429318528
19.410629819152547
19.410723771868234
19.410822284028043
19.41092430586331
19.41102875084388
19.411134504766878
19.411240435953296
19.411345405100846
19.41144827553047
19.411547923882843
19.411643251184138
19.41173319501432
19.41181674076544
19.41189293508873
19.411960897945665
19.412019835363044
19.41206905154239
19.412107959859465
19.412136092866962
19.41215311049071
19.41215880613034
19.427730566122072
19.42773599135832
19.427752207159916
19.42777903478419
19.427816179204147
19.427863232802885
19.42791968145579
19.427984910342445
19.428058212570747
19.428138796384122
19.428225795173535
19.428318276324035
19.428415250140944
19.42851568030024
19.428618493524816
19.428722588879427
19.428826848218534
19.428930146321324
19.429031361400924
19.429129386003034
19.42922313817814
19.42931157361749
19.429393696751937
19.429468573851437
19.42953534460363
19.42959323425444
19.42964156501582
19.429679766328317
19.429707384140034
19.42972408846077
19.42972967895733
19.43828943715281
19.438294807943038
19.438310861273834
19.438337420959307
19.43837419609157
19.43842078454168
19.438476678787943
19.438541271461073
19.43861386368279
19.438693672031494
19.438779838335645
19.43887143837621
19.43896749073859
19.4390669672458
19.439168802689572
19.439271904236726
19.439375162012375
19.43947745938804
19.439577683631946
19.4396747369139
19.439767547528884
19.439855082005188
19.439936356104354
19.440010447714563
19.44007650815416
19.44013377395792
19.440181577882967
19.44021935875107
19.44024667031662
19.44026318845686
19.4402687164815
19.441808438996482
19.441813791697736
19.441829791046274
19.441856261695598
19.44189291409097
19.441939347908075
19.441995057799094
19.44205943885204
19.44213179483659
19.44221134509176
19.442297234247935
19.44238854088214
19.44248428634546
19.442583445189587
19.442684954914903
19.442787725411826
19.442890649586754
19.442992613698554
19.443092508053137
19.443189238041356
19.443281735377685
19.443368970197756
19.443449962024875
19.443523792594878
19.44358961706966
19.443646675707583
19.443694304738443
19.44373194606937
19.443759156019468
19.443775612392187
19.44378111969259
