# vtk DataFile Version 2.0
Unstructured Grid Example
ASCII
DATASET UNSTRUCTURED_GRID

POINTS 961 float
0.400000004 0.01999999956 0
0.3866666556 0.01999999956 0
0.3733333348 0.01999999956 0
0.3600000144 0.01999999956 0
0.346666664 0.01999999956 0
0.3333333432 0.01999999956 0
0.3199999928 0.01999999956 0
0.3066666724 0.01999999956 0
0.293333322 0.01999999956 0
0.2800000012 0.01999999956 0
0.2666666804 0.01999999956 0
0.25333333 0.01999999956 0
0.2399999948 0.01999999956 0
0.226666674 0.01999999956 0
0.2133333384 0.01999999956 0
0.2000000028 0.01999999956 0
0.1866666676 0.01999999956 0
0.173333332 0.01999999956 0
0.1599999964 0.01999999956 0
0.1466666608 0.01999999956 0
0.1333333404 0.01999999956 0
0.1199999972 0.01999999956 0
0.1066666692 0.01999999956 0
0.0933333336 0.01999999956 0
0.0799999984 0.01999999956 0
0.06666667 0.01999999956 0
0.0533333348 0.01999999956 0
0.03999999912 0.01999999956 0
0.02666666732 0.01999999956 0
0.01333333364 0.01999999956 0
0.0 0.01999999956 0
0.400000004 0.00666666684 0
0.3866666556 0.00666666684 0
0.3733333348 0.00666666684 0
0.3600000144 0.00666666684 0
0.346666664 0.00666666684 0
0.3333333432 0.00666666684 0
0.3199999928 0.00666666684 0
0.3066666724 0.00666666684 0
0.293333322 0.00666666684 0
0.2800000012 0.00666666684 0
0.2666666804 0.00666666684 0
0.25333333 0.00666666684 0
0.2399999948 0.00666666684 0
0.226666674 0.00666666684 0
0.2133333384 0.00666666684 0
0.2000000028 0.00666666684 0
0.1866666676 0.00666666684 0
0.173333332 0.00666666684 0
0.1599999964 0.00666666684 0
0.1466666608 0.00666666684 0
0.1333333404 0.00666666684 0
0.1199999972 0.00666666684 0
0.1066666692 0.00666666684 0
0.0933333336 0.00666666684 0
0.0799999984 0.00666666684 0
0.06666667 0.00666666684 0
0.0533333348 0.00666666684 0
0.03999999912 0.00666666684 0
0.02666666732 0.00666666684 0
0.01333333364 0.00666666684 0
0.0 0.00666666684 0
0.400000004 -0.00666666684 0
0.3866666556 -0.00666666684 0
0.3733333348 -0.00666666684 0
0.3600000144 -0.00666666684 0
0.346666664 -0.00666666684 0
0.3333333432 -0.00666666684 0
0.3199999928 -0.00666666684 0
0.3066666724 -0.00666666684 0
0.293333322 -0.00666666684 0
0.2800000012 -0.00666666684 0
0.2666666804 -0.00666666684 0
0.25333333 -0.00666666684 0
0.2399999948 -0.00666666684 0
0.226666674 -0.00666666684 0
0.2133333384 -0.00666666684 0
0.2000000028 -0.00666666684 0
0.1866666676 -0.00666666684 0
0.173333332 -0.00666666684 0
0.1599999964 -0.00666666684 0
0.1466666608 -0.00666666684 0
0.1333333404 -0.00666666684 0
0.1199999972 -0.00666666684 0
0.1066666692 -0.00666666684 0
0.0933333336 -0.00666666684 0
0.0799999984 -0.00666666684 0
0.06666667 -0.00666666684 0
0.0533333348 -0.00666666684 0
0.03999999912 -0.00666666684 0
0.02666666732 -0.00666666684 0
0.01333333364 -0.00666666684 0
0.0 -0.00666666684 0
0.400000004 -0.01999999956 0
0.3866666556 -0.01999999956 0
0.3733333348 -0.01999999956 0
0.3600000144 -0.01999999956 0
0.346666664 -0.01999999956 0
0.3333333432 -0.01999999956 0
0.3199999928 -0.01999999956 0
0.3066666724 -0.01999999956 0
0.293333322 -0.01999999956 0
0.2800000012 -0.01999999956 0
0.2666666804 -0.01999999956 0
0.25333333 -0.01999999956 0
0.2399999948 -0.01999999956 0
0.226666674 -0.01999999956 0
0.2133333384 -0.01999999956 0
0.2000000028 -0.01999999956 0
0.1866666676 -0.01999999956 0
0.173333332 -0.01999999956 0
0.1599999964 -0.01999999956 0
0.1466666608 -0.01999999956 0
0.1333333404 -0.01999999956 0
0.1199999972 -0.01999999956 0
0.1066666692 -0.01999999956 0
0.0933333336 -0.01999999956 0
0.0799999984 -0.01999999956 0
0.06666667 -0.01999999956 0
0.0533333348 -0.01999999956 0
0.03999999912 -0.01999999956 0
0.02666666732 -0.01999999956 0
0.01333333364 -0.01999999956 0
0.0 -0.01999999956 0
0.400000004 -0.03333333508 0
0.3866666556 -0.03333333508 0
0.3733333348 -0.03333333508 0
0.3600000144 -0.03333333508 0
0.346666664 -0.03333333508 0
0.3333333432 -0.03333333508 0
0.3199999928 -0.03333333508 0
0.3066666724 -0.03333333508 0
0.293333322 -0.03333333508 0
0.2800000012 -0.03333333508 0
0.2666666804 -0.03333333508 0
0.25333333 -0.03333333508 0
0.2399999948 -0.03333333508 0
0.226666674 -0.03333333508 0
0.2133333384 -0.03333333508 0
0.2000000028 -0.03333333508 0
0.1866666676 -0.03333333508 0
0.173333332 -0.03333333508 0
0.1599999964 -0.03333333508 0
0.1466666608 -0.03333333508 0
0.1333333404 -0.03333333508 0
0.1199999972 -0.03333333508 0
0.1066666692 -0.03333333508 0
0.0933333336 -0.03333333508 0
0.0799999984 -0.03333333508 0
0.06666667 -0.03333333508 0
0.0533333348 -0.03333333508 0
0.03999999912 -0.03333333508 0
0.02666666732 -0.03333333508 0
0.01333333364 -0.03333333508 0
0.0 -0.03333333508 0
0.400000004 -0.0466666668 0
0.3866666556 -0.0466666668 0
0.3733333348 -0.0466666668 0
0.3600000144 -0.0466666668 0
0.346666664 -0.0466666668 0
0.3333333432 -0.0466666668 0
0.3199999928 -0.0466666668 0
0.3066666724 -0.0466666668 0
0.293333322 -0.0466666668 0
0.2800000012 -0.0466666668 0
0.2666666804 -0.0466666668 0
0.25333333 -0.0466666668 0
0.2399999948 -0.0466666668 0
0.226666674 -0.0466666668 0
0.2133333384 -0.0466666668 0
0.2000000028 -0.0466666668 0
0.1866666676 -0.0466666668 0
0.173333332 -0.0466666668 0
0.1599999964 -0.0466666668 0
0.1466666608 -0.0466666668 0
0.1333333404 -0.0466666668 0
0.1199999972 -0.0466666668 0
0.1066666692 -0.0466666668 0
0.0933333336 -0.0466666668 0
0.0799999984 -0.0466666668 0
0.06666667 -0.0466666668 0
0.0533333348 -0.0466666668 0
0.03999999912 -0.0466666668 0
0.02666666732 -0.0466666668 0
0.01333333364 -0.0466666668 0
0.0 -0.0466666668 0
0.400000004 -0.0599999988 0
0.3866666556 -0.0599999988 0
0.3733333348 -0.0599999988 0
0.3600000144 -0.0599999988 0
0.346666664 -0.0599999988 0
0.3333333432 -0.0599999988 0
0.3199999928 -0.0599999988 0
0.3066666724 -0.0599999988 0
0.293333322 -0.0599999988 0
0.2800000012 -0.0599999988 0
0.2666666804 -0.0599999988 0
0.25333333 -0.0599999988 0
0.2399999948 -0.0599999988 0
0.226666674 -0.0599999988 0
0.2133333384 -0.0599999988 0
0.2000000028 -0.0599999988 0
0.1866666676 -0.0599999988 0
0.173333332 -0.0599999988 0
0.1599999964 -0.0599999988 0
0.1466666608 -0.0599999988 0
0.1333333404 -0.0599999988 0
0.1199999972 -0.0599999988 0
0.1066666692 -0.0599999988 0
0.0933333336 -0.0599999988 0
0.0799999984 -0.0599999988 0
0.06666667 -0.0599999988 0
0.0533333348 -0.0599999988 0
0.03999999912 -0.0599999988 0
0.02666666732 -0.0599999988 0
0.01333333364 -0.0599999988 0
0.0 -0.0599999988 0
0.400000004 -0.0733333304 0
0.3866666556 -0.0733333304 0
0.3733333348 -0.0733333304 0
0.3600000144 -0.0733333304 0
0.346666664 -0.0733333304 0
0.3333333432 -0.0733333304 0
0.3199999928 -0.0733333304 0
0.3066666724 -0.0733333304 0
0.293333322 -0.0733333304 0
0.2800000012 -0.0733333304 0
0.2666666804 -0.0733333304 0
0.25333333 -0.0733333304 0
0.2399999948 -0.0733333304 0
0.226666674 -0.0733333304 0
0.2133333384 -0.0733333304 0
0.2000000028 -0.0733333304 0
0.1866666676 -0.0733333304 0
0.173333332 -0.0733333304 0
0.1599999964 -0.0733333304 0
0.1466666608 -0.0733333304 0
0.1333333404 -0.0733333304 0
0.1199999972 -0.0733333304 0
0.1066666692 -0.0733333304 0
0.0933333336 -0.0733333304 0
0.0799999984 -0.0733333304 0
0.06666667 -0.0733333304 0
0.0533333348 -0.0733333304 0
0.03999999912 -0.0733333304 0
0.02666666732 -0.0733333304 0
0.01333333364 -0.0733333304 0
0.0 -0.0733333304 0
0.400000004 -0.086666666 0
0.3866666556 -0.086666666 0
0.3733333348 -0.086666666 0
0.3600000144 -0.086666666 0
0.346666664 -0.086666666 0
0.3333333432 -0.086666666 0
0.3199999928 -0.086666666 0
0.3066666724 -0.086666666 0
0.293333322 -0.086666666 0
0.2800000012 -0.086666666 0
0.2666666804 -0.086666666 0
0.25333333 -0.086666666 0
0.2399999948 -0.086666666 0
0.226666674 -0.086666666 0
0.2133333384 -0.086666666 0
0.2000000028 -0.086666666 0
0.1866666676 -0.086666666 0
0.173333332 -0.086666666 0
0.1599999964 -0.086666666 0
0.1466666608 -0.086666666 0
0.1333333404 -0.086666666 0
0.1199999972 -0.086666666 0
0.1066666692 -0.086666666 0
0.0933333336 -0.086666666 0
0.0799999984 -0.086666666 0
0.06666667 -0.086666666 0
0.0533333348 -0.086666666 0
0.03999999912 -0.086666666 0
0.02666666732 -0.086666666 0
0.01333333364 -0.086666666 0
0.0 -0.086666666 0
0.400000004 -0.1000000016 0
0.3866666556 -0.1000000016 0
0.3733333348 -0.1000000016 0
0.3600000144 -0.1000000016 0
0.346666664 -0.1000000016 0
0.3333333432 -0.1000000016 0
0.3199999928 -0.1000000016 0
0.3066666724 -0.1000000016 0
0.293333322 -0.1000000016 0
0.2800000012 -0.1000000016 0
0.2666666804 -0.1000000016 0
0.25333333 -0.1000000016 0
0.2399999948 -0.1000000016 0
0.226666674 -0.1000000016 0
0.2133333384 -0.1000000016 0
0.2000000028 -0.1000000016 0
0.1866666676 -0.1000000016 0
0.173333332 -0.1000000016 0
0.1599999964 -0.1000000016 0
0.1466666608 -0.1000000016 0
0.1333333404 -0.1000000016 0
0.1199999972 -0.1000000016 0
0.1066666692 -0.1000000016 0
0.0933333336 -0.1000000016 0
0.0799999984 -0.1000000016 0
0.06666667 -0.1000000016 0
0.0533333348 -0.1000000016 0
0.03999999912 -0.1000000016 0
0.02666666732 -0.1000000016 0
0.01333333364 -0.1000000016 0
0.0 -0.1000000016 0
0.400000004 -0.1133333372 0
0.3866666556 -0.1133333372 0
0.3733333348 -0.1133333372 0
0.3600000144 -0.1133333372 0
0.346666664 -0.1133333372 0
0.3333333432 -0.1133333372 0
0.3199999928 -0.1133333372 0
0.3066666724 -0.1133333372 0
0.293333322 -0.1133333372 0
0.2800000012 -0.1133333372 0
0.2666666804 -0.1133333372 0
0.25333333 -0.1133333372 0
0.2399999948 -0.1133333372 0
0.226666674 -0.1133333372 0
0.2133333384 -0.1133333372 0
0.2000000028 -0.1133333372 0
0.1866666676 -0.1133333372 0
0.173333332 -0.1133333372 0
0.1599999964 -0.1133333372 0
0.1466666608 -0.1133333372 0
0.1333333404 -0.1133333372 0
0.1199999972 -0.1133333372 0
0.1066666692 -0.1133333372 0
0.0933333336 -0.1133333372 0
0.0799999984 -0.1133333372 0
0.06666667 -0.1133333372 0
0.0533333348 -0.1133333372 0
0.03999999912 -0.1133333372 0
0.02666666732 -0.1133333372 0
0.01333333364 -0.1133333372 0
0.0 -0.1133333372 0
0.400000004 -0.1266666652 0
0.3866666556 -0.1266666652 0
0.3733333348 -0.1266666652 0
[...]
POINT_DATA 961
SCALARS Temp float 1
LOOKUP_TABLE default
0.6843663701829966
0.7117001672421592
0.7313158656396467
0.7455783932494323
0.756028654758802
0.7637232829803511
0.7694145347112935
0.7736438556223154
0.7768053319238182
0.7791877153592293
0.7810050906778986
0.7824181405397899
0.7835496604525727
0.7844966334923302
0.7853392397198521
0.7861480031938726
0.7869903366119779
0.7879365575263114
0.789066208710111
0.7904752887781915
0.7922850580152734
0.7946536316899845
0.7977907580782053
0.8019788155226719
0.807601001415873
0.8151813373965988
0.8254416650720555
0.8393850295808156
0.8584226894218385
0.8846027894505133
0.921174202867556
0.722335769389423
0.7491384865068128
0.7685434965393558
0.7827279512375138
0.7931423251245905
0.8008222188754441
0.8065090284012204
0.8107390303243066
0.8139036098668437
0.8162901133933105
0.8181119041272439
0.8195293253415487
0.820665052505183
0.8216160661795375
0.8224626092270562
0.823275306955184
0.8241216873320282
0.8250721825718368
0.8262064322159103
0.8276204883769867
0.8294355813614718
0.831809636037237
0.834951933514314
0.8391438737615841
0.8447667597635862
0.8523410042604438
0.8625815141804658
0.876477000135881
0.8954088756106513
0.9213220525193179
0.9570335819017148
2.500027713167137
2.5040096507725456
2.5151074163956415
2.5253428310679378
2.5338066161007853
2.5405405540469763
2.5458129403714547
2.549913411498356
2.553098877957248
2.555582567605314
2.557536991516842
2.5591008543024607
2.5603865433635247
2.5614871334982814
2.562482620600383
2.563445495510643
2.5644459278344467
2.5655568498882446
2.5668592154792007
2.568447760317327
2.5704375857227975
2.5729717836224655
2.5762302343734325
2.5804392316073046
2.5858804313412254
2.592894536981562
2.6018665265423553
2.6131531229750053
2.6268092881240075
2.6416124487046453
2.646926943112538
4.255565195389923
4.257738166839928
4.263071444189859
4.269735504106906
4.276053916518863
4.281531683085049
4.286088374348307
4.289800665641615
4.292795365414176
4.295206117994215
4.297156896034625
4.298757067984849
4.300101607230314
4.301273513525538
4.302347094086739
4.303391561731935
4.304474760292018
4.305666962465779
4.307044770610334
4.308695130843671
4.31071937496583
4.313237008588984
4.316388416019744
4.320334793302859
4.325251283867338
4.33130463564659
4.338595292424529
4.347014284266542
4.355898896786415
4.3630113541472895
4.365909208890612
6.005917871124866
6.007074246013423
6.010199423762057
6.014430753452228
6.018936666539558
6.023170291498722
6.0269065445861
6.030092282512517
6.03275814274063
6.034970773492501
6.036808736847894
6.038351046227655
6.039672486438505
6.040842537016141
6.041926159914521
6.042985564183143
6.044082474396026
6.045280610763728
6.046648192205981
6.048260241394307
6.050200333991607
6.05256115663631
6.055442611235291
6.058945259134957
6.063154757845236
6.068109415487644
6.073736321714566
6.079733371051996
6.085369476546796
6.089533924584085
6.091075134367525
7.753142075082941
7.753846328420253
7.755794961270892
7.7585848022995965
7.761749232418079
7.7649160275929825
7.767857893862783
7.77047227627219
7.772735479633594
7.774668042071738
7.776312800869611
7.777722148277366
7.778951267833866
7.780055055886518
7.781087213039035
7.782100598318407
7.78314827602415
7.784284843667765
7.785567724218053
7.787058069954752
7.788820788446225
7.790922945910677
7.79342928063139
7.796392916996528
7.799838127155029
7.803730814190979
7.807932203519293
7.8121374310294645
7.81584861810331
7.818442258266859
7.819379857174671
9.498260326052357
9.498708785482863
9.499973082170133
9.501841985027475
9.504051442048656
9.506360282433103
9.508593604865665
9.510648893413771
9.512481881518474
9.51408752981403
9.515484566909148
9.516704784339312
9.517786391511258
9.518770317877921
9.51969846130526
9.520613165303299
9.521557403309613
9.522575247379136
9.523712268639578
9.525015483872027
9.526532355652838
9.528308176307242
9.530380840586394
9.53277177502984
9.535471465657512
9.538418631466632
9.541474766648191
9.544405125016679
9.54688688643088
9.548566981732488
9.549163123458435
11.24172340493422
11.242012171784653
11.242835267192085
11.244077411776576
11.245586343489204
11.247211598966135
11.248831786256437
11.250365229361448
11.251767720024462
11.253024177632645
11.254139524601388
11.255131181093676
11.256023763908164
11.256845744755193
11.257627564576598
11.258400740798297
11.25919757168453
11.260051080228306
11.260994882136378
11.262062636510365
11.263286670360776
11.264695277302854
11.266308048770144
11.268128654247086
11.270134687062919
11.272265341859754
11.274410229791023
11.276406264736273
11.278051861652855
11.279143270445328
11.279526326854413
12.983755224680921
12.98393335017527
12.984444788850164
12.985227236545821
12.986195561241844
12.98726128957076
12.988348204116779
12.989400530482218
12.990384239083172
12.991283974668423
12.992098411549
12.99283575626833
12.993510203830514
12.99413948763045
12.994743345030011
12.995342653722886
12.995958988037485
12.996614343076724
12.997330795126912
12.998129849334248
12.999031192000436
13.000050536100332
13.00119621916419
13.002464382992066
13.003832881417006
13.005254984725461
13.006655245816708
13.007931159945006
13.008964082888536
13.009640002014024
13.00987553705269
14.724464914056426
14.72455793260437
14.72482648425838
14.72524173090609
14.725763414144826
14.726348347475646
14.726957722171903
14.727561535002092
14.728139994984977
14.728682705927692
14.729186785353313
14.729654771223878
14.730092819833157
14.7305093661038
14.73091421529959
14.731317971015693
14.7317316814048
14.73216657126748
14.732633735789772
14.733143662648985
14.733705437762314
14.734325490330107
14.735005742090998
14.735741161633158
14.736516926791326
14.737305864537188
14.738067343408108
14.738749109424475
14.739293191413388
14.739645626958673
14.739767792887317
16.46390480469941
16.46392425652736
16.463981410168643
16.464072881360835
16.464193695593703
16.46433807239545
16.464500199710848
16.46467483346522
16.464857663530804
16.46504544731256
16.465235981818203
16.46542797337222
16.46562086531509
16.46581466228203
16.466009763719175
16.46620681208502
16.466406554657276
16.46660970777404
16.466816814538202
16.46702808575077
16.467243215793737
16.467461172543516
16.467679964471124
16.467896417252717
16.46810600083779
16.468302788633945
16.46847963921819
16.468628679197398
16.46874210597571
16.468813217618113
16.468837460209482
16.560955236949805
16.560971258587358
16.5610185096818
16.56109467778878
16.561196302333116
16.56131925400166
16.561459234524065
16.561612195686006
16.56177463258243
16.561943731804412
16.562117406643647
16.56229424589455
16.56247341439188
16.562654534202114
16.562837558209317
16.563022644414243
16.563210034523824
16.563399931237495
16.56359237079679
16.563787086430338
16.56398336049469
16.564179869904827
16.564374531991007
16.564564380376353
16.564745499690673
16.564913071250572
16.565061575235713
16.565185178317865
16.565278295840585
16.56533625627382
16.565355941894207
16.65790551655889
16.657918969104426
16.65795875849091
16.65802325827134
16.65810999901334
16.658215970106347
16.6583379481404
16.658472788701626
16.658617650793666
16.658770130913567
16.658928321118278
16.6590907999738
16.65925657934487
16.659425027076168
16.65959577425535
16.659768615449327
16.659943407610214
16.660119965566974
16.660297954365728
16.6604767779628
16.660655465615285
16.660832562800138
16.661006033993104
16.661173201388387
16.661330737243734
16.661474741707117
16.66160092684641
16.661704913853704
16.661782625757198
16.66183072400083
16.66184701233732
16.754760512941427
16.754771992859617
16.754806024773494
16.754861434335233
16.75493641703622
16.755028733188144
16.755135927524773
16.755255533005563
16.75538523892866
16.75552300236558
16.75566710954673
16.755816187178453
16.755969177153162
16.75612528804171
16.756283928899883
16.75644463267523
16.756606975480132
16.75677049157994
16.75693458649357
16.75709844992135
16.757260971548266
16.75742066687628
16.757575619041873
16.75772345515767
16.75786136661433
16.75798619244071
16.758094573516228
16.758183175715672
16.75824896540538
16.75828950154169
16.758303197171212
16.85152388729629
16.851533819881677
16.851563317402594
16.851611510949155
16.851677051675384
16.85175823964967
16.85185317319937
16.851959892124484
16.85207650248414
16.852201265340874
16.852332653004943
16.852469368661808
16.852610337208304
16.852754676136218
16.852901649453095
16.853050610521752
16.853200939830447
16.853351978417955
16.853502960343064
16.853652946931888
16.853800766383653
16.853944965269545
16.85408377613219
16.854215115147124
16.854336613804012
16.85444569606647
16.85453970244527
16.85461605610113
16.854672457583423
16.854707083685238
16.854718760808932
16.94819841537072
16.948207111986935
16.948232975434706
16.948275347598276
16.948333197769152
16.948405209512384
16.94848988385195
16.94858564068019
16.94869091117484
16.948804206878926
16.948924167934234
16.949049584763472
16.949179397801455
16.949312681166933
16.949448611452468
16.94958642620229
16.94972537747139
16.949864681428853
16.950003467647658
16.95014073107398
16.950275290134794
16.95040575654516
16.95053051943315
16.95064775428647
16.950755457301575
16.95085151216319
16.95093378780528
16.951000261834388
16.95104915947453
16.95107909118941
16.95108917008212
17.041688247652136
17.041695940160174
17.041718842981062
17.04175644630435
17.041807945419055
17.041872300319568
17.041948308065134
17.04203467519058
17.042130086281183
17.04223325711049
17.04234297461541
17.042458117659475
17.04257766139107
17.042700669237167
17.04282627251301
17.042953641131973
17.04308195008187
17.04321034252959
17.0433378930246
17.04346357362838
17.04358622599524
17.043704543951886
17.04381706793311
17.043922199281415
17.044018233043687
17.044103413778423
17.044176011809057
17.04423441513775
17.044277229593018
17.04430337555566
17.044312168990217
17.12887502804344
17.128881892586506
17.128902348379807
17.128935991805697
17.128982181309567
17.129040078951103
17.12910870186444
17.12918697441583
17.129273779329974
17.129367998358177
17.129468544843473
17.129574382361497
17.129684531272048
17.1297980660764
17.12991410281744
17.130031779159438
17.130150231107333
17.130268566975904
17.13038584170128
17.130501033954445
17.13061302854602
17.130720607754817
17.130822452013884
17.13091715619509
17.13100325908924
17.13107928918912
17.13114382395449
17.131195558585723
17.131233378972098
17.13125643066648
17.13126417578896
17.209728164422106
17.20973433900309
17.209752751620243
17.209783075862017
17.209824789639555
17.20987720457841
17.209939503124073
17.210010776463278
17.21009006291793
17.21017637906848
17.210268746108497
17.21036620606588
17.210467829210902
17.210572714840037
17.21067998423892
17.2107887678195
17.210898189763576
17.211007350489517
17.211115309587697
17.211221071253647
17.211323574181023
17.211421688780085
17.211514221515053
17.211599931357032
17.211677555467137
17.21174584643789
17.211803618401383
17.21184979883665
17.21188348229553
17.21190398028042
17.21191086185294
17.284219228395404
17.28422482351509
17.284241517376827
17.28426904048083
17.28430695935418
17.28435469763566
17.284411563209
17.284476776055612
17.28454949736368
17.284628853443124
17.28471395707251
17.28480392142848
17.28489786765043
17.284994927790944
17.28509424172135
17.28519494951051
17.28529618207565
17.285397050145637
17.285496633741698
17.285593973788085
17.28568806734741
17.28577786873213
17.285862295859673
17.285940245968195
17.286010617645402
17.28607234106706
17.28612441403097
17.28616594131573
17.286196174713652
17.286214549601194
17.286220714368927
17.352321912780983
17.352327018817675
17.352342260039407
17.35236740942092
17.35240209999756
17.352445840206066
17.352498034021906
17.35255800165185
17.352625001868624
17.352698250528697
17.352776937976767
17.35286024098055
17.352947330112578
17.353037374049812
17.3531295392525
17.353222986187163
17.35331686445351
17.353410306619768
17.353502422576824
17.353592295655613
17.353678981614305
17.35376151226611
17.353838902846192
17.353910166602915
17.353974333581306
17.354030475252173
17.354077732882722
17.354115347743942
17.354142691316625
17.354159292485743
17.354164859196747
17.4140120163134
17.414016708730045
17.414030720085222
17.41405385539627
17.41408579812753
17.414126121519764
17.414174303779017
17.4142297436533
17.41429177781932
17.414359695382927
17.414432752227036
17.41451018129061
17.414591199624837
17.414675013513403
17.41476082008498
17.4148478063222
17.414935147472058
17.415022004473798
17.41510752188013
17.415190827209003
17.41527103252248
17.41534723963464
17.415418547885427
17.415484067505535
17.415542935644158
17.415594336571417
17.41563752424213
17.41567184575956
17.415696764482668
17.415711880550706
17.415716947070806
17.46926781508465
17.469272158161246
17.469285129843076
17.469306559530423
17.469336169239686
17.469373582108943
17.469418334063555
17.46946988572431
17.469527636177013
17.46959093449519
17.469659091743665
17.469731389922337
17.46980708865827
17.469885430806222
17.469965645395078
17.47004694863214
17.470128544686585
17.470209625725673
17.470289372405304
17.470366955505888
17.47044153926936
17.470512287559348
17.470578371692238
17.47063898262249
17.470693344696393
17.470740732396578
17.47078048851754
17.470812042649378
17.470834929129285
17.47084880278394
17.470853451233488
17.518069382861178
17.518073432420035
17.51808552992375
17.518105523433633
17.51813316459485
17.518168115143222
17.5182099560507
17.51825819679725
17.51831228649567
17.518371623216044
17.51843556420575
17.51850343377818
17.518574529654483
17.518648128827355
17.51872349141585
17.518799863080723
17.51887647749813
17.518952558260956
17.519027321191235
17.519099977562256
17.519169738603633
17.51923582220063
17.519297460593414
17.51935391150153
17.519404470038552
17.51944848277836
17.51948536262285
17.519514603604986
17.51953579508114
17.51954863402599
17.519552934558394
17.560399525286517
17.560403330709203
17.560414700681907
17.5604334975692
17.560459495811344
17.560492387012367
17.560531787279842
17.560577244602406
17.560628248044473
17.56068423545545
17.560744602344066
17.56080870894651
17.560875886256007
17.560945442014443
17.561016665175643
17.561088829305262
17.56116119623975
17.56123301930086
17.56130354687906
17.561372026737462
17.56143771127406
17.561499864495843
17.561557769497668
17.561610738674002
17.561658124171725
17.561699329899863
17.561733823914643
17.56176115050546
17.561780941644063
17.56179292678717
17.561796940407802
17.596242930016714
17.596246535774224
17.596257310465546
17.596275127364898
17.596299778356236
17.596330978016425
17.596368369664287
17.596411531382792
17.596459983812505
17.59651319668387
17.596570596686576
17.5966315739102
17.596695487609296
17.59676167224171
17.596829442331597
17.596898096545114
17.596966922166406
17.597035199221047
17.59710220493007
17.597167218737205
17.59722952804712
17.597288435312933
17.597343265268055
17.597393374381188
17.59743816016796
17.597477071640142
17.59750961984244
17.597535387943623
17.59755404069129
17.59756533241673
17.59756911313577
17.625586880132857
17.625590326965334
17.625600627668426
17.625617663713076
17.62564124012608
17.62567108886765
17.62570687396766
17.62574819658875
17.625794601815983
17.625845584343445
17.625900595606407
17.625959049752396
17.62602032919232
17.626083790640486
17.626148770233854
17.626214588062187
17.626280553195418
17.62634596842291
17.626410135291124
17.626472359602673
17.626531957443248
17.626588262290845
17.626640632012876
17.62668845771668
17.62673117219227
17.626768259199586
17.626799262650785
17.626823795256545
17.626841546547475
17.626852289595668
17.626855886099225
17.648420913171364
17.6484242390265
17.6484341788219
17.64845061998926
17.648473377134636
17.64850219493267
17.64853675263317
17.648576668462955
17.648621505715823
17.648670777849034
17.64872395509154
17.64878047007602
17.648839723225926
17.648901088777077
17.648963920055113
17.64902755430265
17.64909131806722
17.649154532345115
17.649216517998276
17.649276601551293
17.649334121385593
17.649388434826072
17.649438924939115
17.64948500892384
17.649526145918504
17.649561845451615
17.649591675661952
17.649615270927896
17.649632338886487
17.64964266626216
17.64964612324713
17.664736747623927
17.66473998842553
17.664749674434876
17.66476569713441
17.664787877651314
17.66481596933864
17.664849661871663
17.66488858521974
17.664932315276644
17.664980378569812
17.66503225851911
17.665087400840477
17.66514521881748
17.665205099299474
17.66526640807231
17.665328494868387
17.66539069897792
17.665452354643914
17.66551279671224
17.665571366606496
17.665627418613294
17.665680326933547
17.665729492330577
17.665774350199897
17.66581437794183
17.665849102849933
17.665878109689608
17.665901047654714
17.66591763672645
17.665927672916588
17.665931032187334
17.674528609515754
17.674531799814662
17.674541335113524
17.674557109246624
17.674578947131636
17.674606607175015
17.67463978513732
17.67467811786275
17.67472118864941
17.67476853173877
17.67481963837478
17.67487396207561
17.674930923836442
17.67498991811019
17.675050318226116
17.675111481498945
17.67517275496051
17.675233480891187
17.675293002595208
17.675350670469133
17.67540584833079
17.675457920442277
17.675506298065457
17.67555042734167
17.675589796412027
17.67562394298166
17.675652461531303
17.67567500989044
17.675691315221385
17.67570117893088
17.67570448032965
17.677792943717062
17.67779611726869
17.677805602587213
17.677821294278143
17.677843018502873
17.6778705353275
17.67790354251342
17.6779416791688
17.67798453103449
17.6780316349025
17.67808248460998
17.678136536267843
17.678193213440924
17.678251913122153
17.67831201116594
17.678372867428465
17.67843383153741
17.678494248466425
17.678553464349847
17.67861083258025
17.67866572015019
17.678717514664587
17.678765630865062
17.678809518446553
17.678848669095007
17.678882623945764
17.67891098067551
17.678933399951063
17.67894961129186
17.67895941787416
17.678962700106517
