# vtk DataFile Version 2.0
Unstructured Grid Example
ASCII
DATASET UNSTRUCTURED_GRID

POINTS 961 float
0.400000004 0.01999999956 0
0.3866666556 0.01999999956 0
0.3733333348 0.01999999956 0
0.3600000144 0.01999999956 0
0.346666664 0.01999999956 0
0.3333333432 0.01999999956 0
0.3199999928 0.01999999956 0
0.3066666724 0.01999999956 0
0.293333322 0.01999999956 0
0.2800000012 0.01999999956 0
0.2666666804 0.01999999956 0
0.25333333 0.01999999956 0
0.2399999948 0.01999999956 0
0.226666674 0.01999999956 0
0.2133333384 0.01999999956 0
0.2000000028 0.01999999956 0
0.1866666676 0.01999999956 0
0.173333332 0.01999999956 0
0.1599999964 0.01999999956 0
0.1466666608 0.01999999956 0
0.1333333404 0.01999999956 0
0.1199999972 0.01999999956 0
0.1066666692 0.01999999956 0
0.0933333336 0.01999999956 0
0.0799999984 0.01999999956 0
0.06666667 0.01999999956 0
0.0533333348 0.01999999956 0
0.03999999912 0.01999999956 0
0.02666666732 0.01999999956 0
0.01333333364 0.01999999956 0
0.0 0.01999999956 0
0.400000004 0.00666666684 0
0.3866666556 0.00666666684 0
0.3733333348 0.00666666684 0
0.3600000144 0.00666666684 0
0.346666664 0.00666666684 0
0.3333333432 0.00666666684 0
0.3199999928 0.00666666684 0
0.3066666724 0.00666666684 0
0.293333322 0.00666666684 0
0.2800000012 0.00666666684 0
0.2666666804 0.00666666684 0
0.25333333 0.00666666684 0
0.2399999948 0.00666666684 0
0.226666674 0.00666666684 0
0.2133333384 0.00666666684 0
0.2000000028 0.00666666684 0
0.1866666676 0.00666666684 0
0.173333332 0.00666666684 0
0.1599999964 0.00666666684 0
0.1466666608 0.00666666684 0
0.1333333404 0.00666666684 0
0.1199999972 0.00666666684 0
0.1066666692 0.00666666684 0
0.0933333336 0.00666666684 0
0.0799999984 0.00666666684 0
0.06666667 0.00666666684 0
0.0533333348 0.00666666684 0
0.03999999912 0.00666666684 0
0.02666666732 0.00666666684 0
0.01333333364 0.00666666684 0
0.0 0.00666666684 0
0.400000004 -0.00666666684 0
0.3866666556 -0.00666666684 0
0.3733333348 -0.00666666684 0
0.3600000144 -0.00666666684 0
0.346666664 -0.00666666684 0
0.3333333432 -0.00666666684 0
0.3199999928 -0.00666666684 0
0.3066666724 -0.00666666684 0
0.293333322 -0.00666666684 0
0.2800000012 -0.00666666684 0
0.2666666804 -0.00666666684 0
0.25333333 -0.00666666684 0
0.2399999948 -0.00666666684 0
0.226666674 -0.00666666684 0
0.2133333384 -0.00666666684 0
0.2000000028 -0.00666666684 0
0.1866666676 -0.00666666684 0
0.173333332 -0.00666666684 0
0.1599999964 -0.00666666684 0
0.1466666608 -0.00666666684 0
0.1333333404 -0.00666666684 0
0.1199999972 -0.00666666684 0
0.1066666692 -0.00666666684 0
0.0933333336 -0.00666666684 0
0.0799999984 -0.00666666684 0
0.06666667 -0.00666666684 0
0.0533333348 -0.00666666684 0
0.03999999912 -0.00666666684 0
0.02666666732 -0.00666666684 0
0.01333333364 -0.00666666684 0
0.0 -0.00666666684 0
0.400000004 -0.01999999956 0
0.3866666556 -0.01999999956 0
0.3733333348 -0.01999999956 0
0.3600000144 -0.01999999956 0
0.346666664 -0.01999999956 0
0.3333333432 -0.01999999956 0
0.3199999928 -0.01999999956 0
0.3066666724 -0.01999999956 0
0.293333322 -0.01999999956 0
0.2800000012 -0.01999999956 0
0.2666666804 -0.01999999956 0
0.25333333 -0.01999999956 0
0.2399999948 -0.01999999956 0
0.226666674 -0.01999999956 0
0.2133333384 -0.01999999956 0
0.2000000028 -0.01999999956 0
0.1866666676 -0.01999999956 0
0.173333332 -0.01999999956 0
0.1599999964 -0.01999999956 0
0.1466666608 -0.01999999956 0
0.1333333404 -0.01999999956 0
0.1199999972 -0.01999999956 0
0.1066666692 -0.01999999956 0
0.0933333336 -0.01999999956 0
0.0799999984 -0.01999999956 0
0.06666667 -0.01999999956 0
0.0533333348 -0.01999999956 0
0.03999999912 -0.01999999956 0
0.02666666732 -0.01999999956 0
0.01333333364 -0.01999999956 0
0.0 -0.01999999956 0
0.400000004 -0.03333333508 0
0.3866666556 -0.03333333508 0
0.3733333348 -0.03333333508 0
0.3600000144 -0.03333333508 0
0.346666664 -0.03333333508 0
0.3333333432 -0.03333333508 0
0.3199999928 -0.03333333508 0
0.3066666724 -0.03333333508 0
0.293333322 -0.03333333508 0
0.2800000012 -0.03333333508 0
0.2666666804 -0.03333333508 0
0.25333333 -0.03333333508 0
0.2399999948 -0.03333333508 0
0.226666674 -0.03333333508 0
0.2133333384 -0.03333333508 0
0.2000000028 -0.03333333508 0
0.1866666676 -0.03333333508 0
0.173333332 -0.03333333508 0
0.1599999964 -0.03333333508 0
0.1466666608 -0.03333333508 0
0.1333333404 -0.03333333508 0
0.1199999972 -0.03333333508 0
0.1066666692 -0.03333333508 0
0.0933333336 -0.03333333508 0
0.0799999984 -0.03333333508 0
0.06666667 -0.03333333508 0
0.0533333348 -0.03333333508 0
0.03999999912 -0.03333333508 0
0.02666666732 -0.03333333508 0
0.01333333364 -0.03333333508 0
0.0 -0.03333333508 0
0.400000004 -0.0466666668 0
0.3866666556 -0.0466666668 0
0.3733333348 -0.0466666668 0
0.3600000144 -0.0466666668 0
0.346666664 -0.0466666668 0
0.3333333432 -0.0466666668 0
0.3199999928 -0.0466666668 0
0.3066666724 -0.0466666668 0
0.293333322 -0.0466666668 0
0.2800000012 -0.0466666668 0
0.2666666804 -0.0466666668 0
0.25333333 -0.0466666668 0
0.2399999948 -0.0466666668 0
0.226666674 -0.0466666668 0
0.2133333384 -0.0466666668 0
0.2000000028 -0.0466666668 0
0.1866666676 -0.0466666668 0
0.173333332 -0.0466666668 0
0.1599999964 -0.0466666668 0
0.1466666608 -0.0466666668 0
0.1333333404 -0.0466666668 0
0.1199999972 -0.0466666668 0
0.1066666692 -0.0466666668 0
0.0933333336 -0.0466666668 0
0.0799999984 -0.0466666668 0
0.06666667 -0.0466666668 0
0.0533333348 -0.0466666668 0
0.03999999912 -0.0466666668 0
0.02666666732 -0.0466666668 0
0.01333333364 -0.0466666668 0
0.0 -0.0466666668 0
0.400000004 -0.0599999988 0
0.3866666556 -0.0599999988 0
0.3733333348 -0.0599999988 0
0.3600000144 -0.0599999988 0
0.346666664 -0.0599999988 0
0.3333333432 -0.0599999988 0
0.3199999928 -0.0599999988 0
0.3066666724 -0.0599999988 0
0.293333322 -0.0599999988 0
0.2800000012 -0.0599999988 0
0.2666666804 -0.0599999988 0
0.25333333 -0.0599999988 0
0.2399999948 -0.0599999988 0
0.226666674 -0.0599999988 0
0.2133333384 -0.0599999988 0
0.2000000028 -0.0599999988 0
0.1866666676 -0.0599999988 0
0.173333332 -0.0599999988 0
0.1599999964 -0.0599999988 0
0.1466666608 -0.0599999988 0
0.1333333404 -0.0599999988 0
0.1199999972 -0.0599999988 0
0.1066666692 -0.0599999988 0
0.0933333336 -0.0599999988 0
0.0799999984 -0.0599999988 0
0.06666667 -0.0599999988 0
0.0533333348 -0.0599999988 0
0.03999999912 -0.0599999988 0
0.02666666732 -0.0599999988 0
0.01333333364 -0.0599999988 0
0.0 -0.0599999988 0
0.400000004 -0.0733333304 0
0.3866666556 -0.0733333304 0
0.3733333348 -0.0733333304 0
0.3600000144 -0.0733333304 0
0.346666664 -0.0733333304 0
0.3333333432 -0.0733333304 0
0.3199999928 -0.0733333304 0
0.3066666724 -0.0733333304 0
0.293333322 -0.0733333304 0
0.2800000012 -0.0733333304 0
0.2666666804 -0.0733333304 0
0.25333333 -0.0733333304 0
0.2399999948 -0.0733333304 0
0.226666674 -0.0733333304 0
0.2133333384 -0.0733333304 0
0.2000000028 -0.0733333304 0
0.1866666676 -0.0733333304 0
0.173333332 -0.0733333304 0
0.1599999964 -0.0733333304 0
0.1466666608 -0.0733333304 0
0.1333333404 -0.0733333304 0
0.1199999972 -0.0733333304 0
0.1066666692 -0.0733333304 0
0.0933333336 -0.0733333304 0
0.0799999984 -0.0733333304 0
0.06666667 -0.0733333304 0
0.0533333348 -0.0733333304 0
0.03999999912 -0.0733333304 0
0.02666666732 -0.0733333304 0
0.01333333364 -0.0733333304 0
0.0 -0.0733333304 0
0.400000004 -0.086666666 0
0.3866666556 -0.086666666 0
0.3733333348 -0.086666666 0
0.3600000144 -0.086666666 0
0.346666664 -0.086666666 0
0.3333333432 -0.086666666 0
0.3199999928 -0.086666666 0
0.3066666724 -0.086666666 0
0.293333322 -0.086666666 0
0.2800000012 -0.086666666 0
0.2666666804 -0.086666666 0
0.25333333 -0.086666666 0
0.2399999948 -0.086666666 0
0.226666674 -0.086666666 0
0.2133333384 -0.086666666 0
0.2000000028 -0.086666666 0
0.1866666676 -0.086666666 0
0.173333332 -0.086666666 0
0.1599999964 -0.086666666 0
0.1466666608 -0.086666666 0
0.1333333404 -0.086666666 0
0.1199999972 -0.086666666 0
0.1066666692 -0.086666666 0
0.0933333336 -0.086666666 0
0.0799999984 -0.086666666 0
0.06666667 -0.086666666 0
0.0533333348 -0.086666666 0
0.03999999912 -0.086666666 0
0.02666666732 -0.086666666 0
0.01333333364 -0.086666666 0
0.0 -0.086666666 0
0.400000004 -0.1000000016 0
0.3866666556 -0.1000000016 0
0.3733333348 -0.1000000016 0
0.3600000144 -0.1000000016 0
0.346666664 -0.1000000016 0
0.3333333432 -0.1000000016 0
0.3199999928 -0.1000000016 0
0.3066666724 -0.1000000016 0
0.293333322 -0.1000000016 0
0.2800000012 -0.1000000016 0
0.2666666804 -0.1000000016 0
0.25333333 -0.1000000016 0
0.2399999948 -0.1000000016 0
0.226666674 -0.1000000016 0
0.2133333384 -0.1000000016 0
0.2000000028 -0.1000000016 0
0.1866666676 -0.1000000016 0
0.173333332 -0.1000000016 0
0.1599999964 -0.1000000016 0
0.1466666608 -0.1000000016 0
0.1333333404 -0.1000000016 0
0.1199999972 -0.1000000016 0
0.1066666692 -0.1000000016 0
0.0933333336 -0.1000000016 0
0.0799999984 -0.1000000016 0
0.06666667 -0.1000000016 0
0.0533333348 -0.1000000016 0
0.03999999912 -0.1000000016 0
0.02666666732 -0.1000000016 0
0.01333333364 -0.1000000016 0
0.0 -0.1000000016 0
0.400000004 -0.1133333372 0
0.3866666556 -0.1133333372 0
0.3733333348 -0.1133333372 0
0.3600000144 -0.1133333372 0
0.346666664 -0.1133333372 0
0.3333333432 -0.1133333372 0
0.3199999928 -0.1133333372 0
0.3066666724 -0.1133333372 0
0.293333322 -0.1133333372 0
0.2800000012 -0.1133333372 0
0.2666666804 -0.1133333372 0
0.25333333 -0.1133333372 0
0.2399999948 -0.1133333372 0
0.226666674 -0.1133333372 0
0.2133333384 -0.1133333372 0
0.2000000028 -0.1133333372 0
0.1866666676 -0.1133333372 0
0.173333332 -0.1133333372 0
0.1599999964 -0.1133333372 0
0.1466666608 -0.1133333372 0
0.1333333404 -0.1133333372 0
0.1199999972 -0.1133333372 0
0.1066666692 -0.1133333372 0
0.0933333336 -0.1133333372 0
0.0799999984 -0.1133333372 0
0.06666667 -0.1133333372 0
0.0533333348 -0.1133333372 0
0.03999999912 -0.1133333372 0
0.02666666732 -0.1133333372 0
0.01333333364 -0.1133333372 0
0.0 -0.1133333372 0
0.400000004 -0.1266666652 0
0.3866666556 -0.1266666652 0
0.3733333348 -0.1266666652 0
[...]
POINT_DATA 961
SCALARS Temp float 1
LOOKUP_TABLE default
0.664775327622002
0.6913266516840388
0.7103808177105126
0.7242350538654169
0.7343861540956989
0.7418605035309624
0.7473888245423144
0.7514970631890051
0.7545680244800708
0.7568821943352915
0.7586475291519151
0.7600201119664887
0.7611192232507368
0.7620390699721169
0.7628575370990285
0.7636431300170157
0.7644613318159587
0.7653804472788098
0.7664777423138927
0.7678464675830888
0.7696044122443222
0.7719051653823107
0.7749524709802658
0.779020623895532
0.7844818518759086
0.7918451755273631
0.8018117724204197
0.8153559736339939
0.8338486376780654
0.8592792772754421
0.8948037602598672
0.7016577944019712
0.7276932414601018
0.7465427502643676
0.7603211482402337
0.7704373878758415
0.7778974242438366
0.7834214297431349
0.7875303293617918
0.7906043044464663
0.7929224757758024
0.7946920988833593
0.796068927142027
0.7971721244295333
0.7980958952794551
0.7989181856731818
0.799707599355904
0.8005297313976649
0.8014529979705887
0.802554758990274
0.8039283170942286
0.8056914323291335
0.8079975088380281
0.8110498368198176
0.8151217607732968
0.8205836682762608
0.82794107435393
0.8378884204221221
0.8513861133920668
0.8697760211350527
0.8949473786833071
0.92963659348041
2.4284605746849746
2.4323285200780305
2.4431085857491035
2.4530509804880425
2.461272455264881
2.4678135967667028
2.472935020377531
2.476918071584822
2.4800123068672417
2.482424850566833
2.4843232758689435
2.485842317297053
2.4870911455694493
2.4881601716803563
2.489127102141915
2.490062353268488
2.4910340865910556
2.492113147259609
2.4933781722735007
2.494921185983935
2.4968539953232827
2.499315596514486
2.502480721034073
2.5065691849201546
2.511854581692845
2.518667861863116
2.527382983048156
2.538346456604827
2.551611671238113
2.5659910524487577
2.5711534057168306
4.133743103876024
4.1358538653943056
4.141034453690407
4.147507718521711
4.153645220487544
4.158966131725933
4.163392325692538
4.166998283368784
4.1699071838088555
4.172248846345566
4.174143695579968
4.17569797004496
4.177003925347645
4.178142186273085
4.179184933938746
4.18019940092047
4.181251490004754
4.182409463311405
4.1837477314046785
4.185350752472779
4.187316958529924
4.189762435092428
4.192823548618901
4.196656881460236
4.201432564003262
4.207312571392211
4.214394472618322
4.222572417741105
4.231202664301865
4.238111497548359
4.240926390123284
5.83398925784888
5.835112522244775
5.838148214606257
5.842258378967206
5.846635252113634
5.850747618116004
5.854376837305391
5.857471288550413
5.860060733251013
5.862209912826135
5.863995141608864
5.865493172448855
5.866776650713986
5.867913068437575
5.868965529442404
5.86999446348505
5.871059829729452
5.872223525844266
5.873551819403412
5.8751175869257874
5.877002013023385
5.879295132395809
5.882093988377921
5.885496264769418
5.889585168076478
5.894397910766356
5.899863670555694
5.90568899106078
5.911163714718088
5.915208924714389
5.916706006796451
7.531196508965158
7.5318805922213565
7.533773413327345
7.536483342664823
7.539557119359758
7.5426331755923295
7.545490724962555
7.548030149416595
7.550228433358091
7.552105528416297
7.5537030471728555
7.555071883775872
7.556265643864125
7.557337654191379
7.558340080061729
7.559324269336974
7.560341769294969
7.561445616532199
7.562691592194048
7.564139099932026
7.565851191116768
7.567893013884832
7.5703274549733806
7.573206119569037
7.576552586429724
7.580333736020985
7.584414767573614
7.588499545251984
7.5921044439421825
7.594623806817949
7.595534555329514
9.22635810832687
9.226793717826865
9.228021785940305
9.22983712878978
9.231983253916574
9.23422589530995
9.236395159619555
9.238391466965078
9.240171819574975
9.24173132413036
9.24308817506788
9.24427325595978
9.245323684660965
9.24627922131323
9.24718056682915
9.248068855062412
9.248985831787312
9.249974309943902
9.251078558602105
9.252344251044345
9.253817493504052
9.255542283982182
9.257555434544246
9.259877760322857
9.262500021488318
9.265362692925686
9.268331235213461
9.271177623396955
9.273588279615872
9.275220242678424
9.275799306560762
10.919911936144675
10.920192422067434
10.920991911664537
10.922198426080497
10.923664062787312
10.925242666755079
10.926816322442589
10.9283056936075
10.929667839433789
10.930888113163855
10.931971298662425
10.932934319961243
10.933801091873006
10.934599273897334
10.935358438489917
10.936109203840559
10.93688294665643
10.937711747625738
10.938628263148669
10.939665191711029
10.940853937742556
10.942221987610786
10.943788374460748
10.945556665097572
10.947505096440544
10.94957460572416
10.951657965862626
10.953596760785118
10.955195177315721
10.956255298901194
10.956627375018842
12.612075499271763
12.612248508554893
12.612745255413353
12.613505219798926
12.614445707651075
12.61548077957022
12.616536401603797
12.617558397930244
12.618513715364248
12.6193874407519
12.620178289132669
12.620894235123355
12.621549070561088
12.622160024532846
12.622746272840399
12.623328099051815
12.623926463465722
12.624562735109189
12.625258361829008
12.626034236603518
12.626909485518782
12.62789937492468
12.629012006677412
12.63024363580858
12.631572752662235
12.632953967510435
12.634313995027172
12.635553266496245
12.63655653540754
12.637213053894316
12.637441829174985
14.302954806423843
14.303045142374408
14.303305947146107
14.303709208809844
14.3042158224934
14.304783839462896
14.305375563831118
14.305961853512414
14.306523486678943
14.30705036767556
14.307539699759772
14.307993951714291
14.308419107291853
14.308823363819972
14.309216249872078
14.309608069590636
14.310009558994105
14.31043162569168
14.310885051343002
14.311380027399672
14.311925383547532
14.312527368631471
14.313187852854629
14.313901952060991
14.314655271331368
14.315421418129098
14.316160926406445
14.316823039940928
14.317351448586344
14.317693735781663
14.317812384668073
15.992600695304802
15.992619567629283
15.992675017413234
15.992763758016089
15.99288095855802
15.993021005742966
15.993178256047603
15.993347618101824
15.993524908146238
15.99370697976605
15.993891696719292
15.994077806341789
15.994264772137626
15.994452603038471
15.99464169163736
15.994832666687728
15.995026258813155
15.995223168583305
15.995423928240049
15.9956287471329
15.995837332822926
15.996048686959735
15.996260879006272
15.996470829196953
15.996674140518378
15.996865059024918
15.99703665031514
15.997181268541844
15.997291336174555
15.997360344362598
15.997383870298071
16.08687294094606
16.086888480986392
16.086934310837616
16.08700818500423
16.08710674321842
16.08722597609743
16.087361710595843
16.08751001700345
16.08766749377084
16.08783141142596
16.08799974672892
16.08817113290061
16.088344762965903
16.088520274295753
16.088697625762993
16.088876975591404
16.089058563366873
16.08924259078452
16.089429097794252
16.08961782990292
16.089808094497418
16.08999861064898
16.090187359339453
16.09037146284414
16.09054712127613
16.09070965692062
16.090853710590032
16.090973618128473
16.09106395647356
16.091120189070754
16.091139288199482
16.181047946444124
16.18106099039958
16.18109957054039
16.181162107748275
16.18124620455435
16.181348938294196
16.181467180064274
16.181597878143478
16.18173827595643
16.181886042282446
16.18203932761685
16.182196755339277
16.18235736998382
16.182520562082164
16.18268597803133
16.182853423136226
16.18302276335453
16.18319382372663
16.18336628374426
16.183539569176528
16.183712741661274
16.183884392694512
16.184052549148184
16.18421461369509
16.18436735733372
16.184506994947938
16.184629364034343
16.18473021336983
16.184805584456434
16.18485223558364
16.184868034145474
16.275130442882475
16.275141569888333
16.275174555006508
16.275228258301794
16.275300928237503
16.27539039106208
16.27549426410165
16.27561015370792
16.275735818523845
16.275869277698465
16.2760088704709
16.27615326712204
16.276301444364506
16.27645263817042
16.27660627942107
16.276761919455048
16.276919151595358
16.27707752851596
16.277236477774483
16.277395217177645
16.27755267294138
16.277707407592402
16.27785756340553
16.278000839371813
16.278134510878616
16.278255510643067
16.278360578474413
16.278446478001392
16.278510264255896
16.27854956738963
16.278562846674152
16.369123988219776
16.36913361113262
16.369162188508376
16.36920887714073
16.369272368168723
16.36935101222533
16.36944296448306
16.36954632374544
16.369659253624913
16.36978006871562
16.369907289181352
16.37003965977802
16.370176140906075
16.370315880272084
16.370458168074663
16.37060238142681
16.370747923848036
16.37089416053774
16.37104035271995
16.37118559371539
16.371328750220606
16.3714684151388
16.371602876059132
16.371730112932166
16.37184782880172
16.371953524713703
16.372044620200683
16.37211861459872
16.37217327618444
16.372206835316646
16.372218152824054
16.463031280831537
16.46303970182704
16.46306474518607
16.4631057725057
16.463161784027307
16.463231503002177
16.46331347589795
16.463406170881445
16.46350806755185
16.463617724010334
16.463733823664118
16.46385519624247
16.46398081748719
16.46410979323334
16.46424132903581
16.464374689779508
16.464509154505297
16.464643967395496
16.464778288454347
16.4649111467918
16.465041399871716
16.46516770412427
16.465288499475008
16.465402017979624
16.46550631714508
16.465599344753137
16.46567903378398
16.465743422273754
16.46579078825362
16.465819783410343
16.465829547109553
16.553845065304444
16.553852509503074
16.553874672704936
16.553911060613874
16.553960893076855
16.554023161968818
16.554096701454384
16.554180258300715
16.554272558449075
16.554372358596932
16.55447848497749
16.554589853480653
16.554705473835412
16.5548244417712
16.554945919151425
16.555069105462508
16.55519320518388
16.55531739188504
16.555440772418105
16.55556235395317
16.555681016796598
16.55579549740674
16.55590438293603
16.556006125062478
16.5560990718004
16.556181521663376
16.556251797693797
16.55630833671125
16.556349786563302
16.55637510005947
16.556383613666412
16.638536221724923
16.638542860307723
16.63856264248892
16.638595177169496
16.638639842755467
16.638695827504193
16.63876217948368
16.638837857211087
16.638921779273172
16.63901286379415
16.639110060014815
16.63921236634963
16.639318836697136
16.63942857780845
16.6395407369853
16.639654482667897
16.63976898175157
16.63988337423417
16.639996748195628
16.64010811749982
16.640216404638373
16.640320432241854
16.64041892369077
16.64051051887232
16.64059380276732
16.640667349873663
16.640729781731874
16.640779833694133
16.640816425752988
16.64083872951724
16.640846223469456
16.717075032852996
16.717080999956405
16.717098793658803
16.717128097898673
16.71716840719664
16.71721905518957
16.717279250645063
16.717348114269974
16.717424715961155
16.71750810500012
16.717597335597205
16.71769148259599
16.71778964861344
16.71789096473403
16.71799458360863
16.71809966689511
16.718205370269263
16.718310826323844
16.71841512792202
16.718517313978083
16.718616359572092
16.718711173179727
16.718800600827485
16.718883442010487
16.718958474588923
16.71902449091222
16.71908034256264
16.719124990642133
16.71915755792759
16.719177377295477
16.719184031149958
16.789433883177193
16.789439286226422
16.78945540684585
16.7894819842952
16.789518599238225
16.789564694207108
16.789619599929033
16.789682562353278
16.78975277088128
16.789829381557716
16.789911537748267
16.78999838361579
16.790089071410545
16.790182764266195
16.79027863312605
16.790375849272586
16.790473575171134
16.790570953676603
16.790667097742393
16.790761082198742
16.79085193905466
16.790938658506256
16.791020195050095
16.79109548268224
16.7911634562431
16.791223080737268
16.791273386289486
16.791313506338007
16.791342716487417
16.791360470006072
16.791366426394838
16.85558721762581
16.85559214450303
16.855606850809135
16.85563111709818
16.8556645886973
16.85570679059099
16.85575714695093
16.85581500120696
16.855879637695075
16.855950299604515
16.856026205823913
16.85610656247809
16.856190570038734
16.856277427428445
16.85636633163861
16.85645647399084
16.856547035325963
16.856637179940876
16.85672605002889
16.85681276183335
16.85689640459149
16.856976043984837
16.857050729233116
16.857119507198846
16.857181440577854
16.857235631768496
16.857281250382087
16.857317562545397
16.857343960207007
16.857359987525925
16.857365361888693
16.915511526728725
16.915516050830828
16.915529559501316
16.915551864452237
16.915582660050028
16.915621534302804
16.91566798358247
16.915721427725316
16.91578122687233
16.915846695512688
16.915917116359058
16.915991750274337
16.91606984306409
16.91615063037566
16.916233339192253
16.916317186798402
16.91640137915616
16.91648510832943
16.91656755038691
16.916647864695374
16.916725195378714
16.916798676301063
16.91686743855413
16.91693062336836
16.916987397625093
16.917036973424015
16.91707862995168
16.917111736232094
16.917135773536454
16.917150355292243
16.917155242787437
16.96918570744678
16.96918989131066
16.96920238738418
16.969223031093744
16.969251554302943
16.969287593556267
16.96933070137798
16.96938035780846
16.96943598372959
16.96949695201467
16.969562599124746
16.969632233736952
16.969705143181596
16.969780598805837
16.969857858761543
16.96993616890717
16.970014763486866
16.970092865086393
16.97016968502998
16.970244424890062
16.970316279652305
16.970384443621647
16.97044811796357
16.970506522467623
16.970558908849
16.970604576955818
16.970642892373476
16.97067330433694
16.970695363131107
16.970708735354037
16.970713215848154
17.016590402967026
17.016594300916555
17.01660594544845
17.016625190142076
17.0166517956849
17.016685436174214
17.01672570796728
17.016772138656112
17.0168241978227
17.01688130605265
17.016942844797498
17.017008163976826
17.017076588073625
17.017147421751904
17.017219953525235
17.017293458027577
17.017367198332398
17.017440427718586
17.017512391834956
17.017582331749217
17.017649488245738
17.01771310825366
17.01777245225848
17.0178268050335
17.017875487153653
17.017917868599785
17.017953383148832
17.017981542709723
17.018001951071504
17.018014315816917
17.01801845755467
17.057708910189803
17.057712570294814
17.057723506038638
17.057741584917306
17.057766589798597
17.057798223845293
17.057836117610712
17.057879836172717
17.05792888801302
17.057982732461063
17.05804078824786
17.058102440309817
17.058167045579605
17.05823393872644
17.058302436414174
17.058371840526988
17.058441441638273
17.058510522050472
17.058578359192655
17.05864422971874
17.05870741453918
17.058767205514567
17.058822912651653
17.058873873946908
17.058919465479065
17.058959113014616
17.05899230398546
17.059018599184466
17.059037643848402
17.059049177149973
17.059053039492195
17.092526354215455
17.092529819777717
17.092540175507686
17.092557299518116
17.092580991653307
17.09261097743575
17.092646913907423
17.092688395446693
17.092734961285654
17.09278610181001
17.09284126613564
17.092899868301892
17.092961292804407
17.093024900379568
17.0930900326495
17.093156016003043
17.09322216585682
17.093287790576692
17.0933521957196
17.093414688833164
17.09347458494838
17.093531213381915
17.09358392469135
17.09363209978214
17.093675158890854
17.093712571673727
17.093743867388095
17.093768644649664
17.093786580577255
17.093797438538182
17.093801074052784
17.12103038136084
17.121033692059825
17.121043585912343
17.121059949009247
17.12108259398782
17.121111263292917
17.121145634131036
17.121185323355128
17.121229894006266
17.121278860791392
17.121331696942967
17.121387839955165
17.12144669690815
17.121507650252966
17.1215700627044
17.121633281562517
17.12169664350803
17.121759479120882
17.121821117687958
17.1218808924598
17.121938146422714
17.12199223912105
17.122042553383515
17.122088503841937
17.12212954506967
17.12216518054064
17.122194971494366
17.122218545289098
17.122235603153797
17.122245926686514
17.122249382771393
17.143210827972272
17.143214020776266
17.143223562914418
17.143239346280115
17.14326119283635
17.14328885740702
17.143322032019004
17.143360350144434
17.14340339256199
17.143450692261062
17.143501740791713
17.143555993670983
17.143612875547017
17.14367178596513
17.143732104413843
17.143793194933725
17.143854411262385
17.143915101745083
17.143974614510007
17.14403230301345
17.144087531973646
17.14413968417019
17.14418816697626
17.14423242043049
17.144271924756534
17.144306208509434
17.144334856505196
17.144357517185657
17.144373909396464
17.14438382801782
17.144387148197307
17.159059649049233
17.15906275896171
17.159072053763456
17.159087429291656
17.159108713858465
17.15913567073825
17.15916800211084
17.15920535288585
17.159247316117195
17.159293437530657
17.15934322153399
17.159396136400872
17.15945161932227
17.15950908214935
17.15956791652918
17.15962749869108
17.159687194807535
17.159746366148365
17.159804374481745
17.159860587791666
17.159914386299526
17.15996516922869
17.160012361190553
17.160055419943653
17.1600938434913
17.1601271776809
17.160155023510253
17.160177043838466
17.16019296952245
17.16020260447865
17.160205829468367
17.168571235491587
17.168574296183102
17.168583444098555
17.16859857736499
17.168619527985427
17.168646064155304
17.1686778939811
17.16871466906917
17.168755989687412
17.1688014090791
17.16885043927877
17.168902556167723
17.168957204458437
17.16901380341998
17.16907175206011
17.169130434007222
17.169189222988184
17.169247488114333
17.169304599403986
17.169359933590382
17.169412880185316
17.16946284821594
17.169509272520447
17.169551621322203
17.16958940308213
17.169622173782802
17.169649543877856
17.16967118463044
17.1696868338853
17.169696300808283
17.169699469418752
17.171742133686646
17.17174517805559
17.171754277257932
17.171769330171657
17.171790170010887
17.17181656658727
17.171848229956048
17.17188481392901
17.171925921154042
17.17197110736004
17.172019887109432
17.172071738811653
17.172126109685433
17.172182421477878
17.17224007566066
17.172298458342212
17.172356945782326
17.17241490971999
17.172471722933917
17.172526765078647
17.17257942876052
17.17262912626402
17.17267529581709
17.172717409103864
17.17275497803673
17.172787561937458
17.1728147743704
17.172836289360024
17.172851847044797
17.172861258312437
17.172864408250447
