# vtk DataFile Version 2.0
Unstructured Grid Example
ASCII
DATASET UNSTRUCTURED_GRID

POINTS 961 float
0.400000004 0.01999999956 0
0.3866666556 0.01999999956 0
0.3733333348 0.01999999956 0
0.3600000144 0.01999999956 0
0.346666664 0.01999999956 0
0.3333333432 0.01999999956 0
0.3199999928 0.01999999956 0
0.3066666724 0.01999999956 0
0.293333322 0.01999999956 0
0.2800000012 0.01999999956 0
0.2666666804 0.01999999956 0
0.25333333 0.01999999956 0
0.2399999948 0.01999999956 0
0.226666674 0.01999999956 0
0.2133333384 0.01999999956 0
0.2000000028 0.01999999956 0
0.1866666676 0.01999999956 0
0.173333332 0.01999999956 0
0.1599999964 0.01999999956 0
0.1466666608 0.01999999956 0
0.1333333404 0.01999999956 0
0.1199999972 0.01999999956 0
0.1066666692 0.01999999956 0
0.0933333336 0.01999999956 0
0.0799999984 0.01999999956 0
0.06666667 0.01999999956 0
0.0533333348 0.01999999956 0
0.03999999912 0.01999999956 0
0.02666666732 0.01999999956 0
0.01333333364 0.01999999956 0
0.0 0.01999999956 0
0.400000004 0.00666666684 0
0.3866666556 0.00666666684 0
0.3733333348 0.00666666684 0
0.3600000144 0.00666666684 0
0.346666664 0.00666666684 0
0.3333333432 0.00666666684 0
0.3199999928 0.00666666684 0
0.3066666724 0.00666666684 0
0.293333322 0.00666666684 0
0.2800000012 0.00666666684 0
0.2666666804 0.00666666684 0
0.25333333 0.00666666684 0
0.2399999948 0.00666666684 0
0.226666674 0.00666666684 0
0.2133333384 0.00666666684 0
0.2000000028 0.00666666684 0
0.1866666676 0.00666666684 0
0.173333332 0.00666666684 0
0.1599999964 0.00666666684 0
0.1466666608 0.00666666684 0
0.1333333404 0.00666666684 0
0.1199999972 0.00666666684 0
0.1066666692 0.00666666684 0
0.0933333336 0.00666666684 0
0.0799999984 0.00666666684 0
0.06666667 0.00666666684 0
0.0533333348 0.00666666684 0
0.03999999912 0.00666666684 0
0.02666666732 0.00666666684 0
0.01333333364 0.00666666684 0
0.0 0.00666666684 0
0.400000004 -0.00666666684 0
0.3866666556 -0.00666666684 0
0.3733333348 -0.00666666684 0
0.3600000144 -0.00666666684 0
0.346666664 -0.00666666684 0
0.3333333432 -0.00666666684 0
0.3199999928 -0.00666666684 0
0.3066666724 -0.00666666684 0
0.293333322 -0.00666666684 0
0.2800000012 -0.00666666684 0
0.2666666804 -0.00666666684 0
0.25333333 -0.00666666684 0
0.2399999948 -0.00666666684 0
0.226666674 -0.00666666684 0
0.2133333384 -0.00666666684 0
0.2000000028 -0.00666666684 0
0.1866666676 -0.00666666684 0
0.173333332 -0.00666666684 0
0.1599999964 -0.00666666684 0
0.1466666608 -0.00666666684 0
0.1333333404 -0.00666666684 0
0.1199999972 -0.00666666684 0
0.1066666692 -0.00666666684 0
0.0933333336 -0.00666666684 0
0.0799999984 -0.00666666684 0
0.06666667 -0.00666666684 0
0.0533333348 -0.00666666684 0
0.03999999912 -0.00666666684 0
0.02666666732 -0.00666666684 0
0.01333333364 -0.00666666684 0
0.0 -0.00666666684 0
0.400000004 -0.01999999956 0
0.3866666556 -0.01999999956 0
0.3733333348 -0.01999999956 0
0.3600000144 -0.01999999956 0
0.346666664 -0.01999999956 0
0.3333333432 -0.01999999956 0
0.3199999928 -0.01999999956 0
0.3066666724 -0.01999999956 0
0.293333322 -0.01999999956 0
0.2800000012 -0.01999999956 0
0.2666666804 -0.01999999956 0
0.25333333 -0.01999999956 0
0.2399999948 -0.01999999956 0
0.226666674 -0.01999999956 0
0.2133333384 -0.01999999956 0
0.2000000028 -0.01999999956 0
0.1866666676 -0.01999999956 0
0.173333332 -0.01999999956 0
0.1599999964 -0.01999999956 0
0.1466666608 -0.01999999956 0
0.1333333404 -0.01999999956 0
0.1199999972 -0.01999999956 0
0.1066666692 -0.01999999956 0
0.0933333336 -0.01999999956 0
0.0799999984 -0.01999999956 0
0.06666667 -0.01999999956 0
0.0533333348 -0.01999999956 0
0.03999999912 -0.01999999956 0
0.02666666732 -0.01999999956 0
0.01333333364 -0.01999999956 0
0.0 -0.01999999956 0
0.400000004 -0.03333333508 0
0.3866666556 -0.03333333508 0
0.3733333348 -0.03333333508 0
0.3600000144 -0.03333333508 0
0.346666664 -0.03333333508 0
0.3333333432 -0.03333333508 0
0.3199999928 -0.03333333508 0
0.3066666724 -0.03333333508 0
0.293333322 -0.03333333508 0
0.2800000012 -0.03333333508 0
0.2666666804 -0.03333333508 0
0.25333333 -0.03333333508 0
0.2399999948 -0.03333333508 0
0.226666674 -0.03333333508 0
0.2133333384 -0.03333333508 0
0.2000000028 -0.03333333508 0
0.1866666676 -0.03333333508 0
0.173333332 -0.03333333508 0
0.1599999964 -0.03333333508 0
0.1466666608 -0.03333333508 0
0.1333333404 -0.03333333508 0
0.1199999972 -0.03333333508 0
0.1066666692 -0.03333333508 0
0.0933333336 -0.03333333508 0
0.0799999984 -0.03333333508 0
0.06666667 -0.03333333508 0
0.0533333348 -0.03333333508 0
0.03999999912 -0.03333333508 0
0.02666666732 -0.03333333508 0
0.01333333364 -0.03333333508 0
0.0 -0.03333333508 0
0.400000004 -0.0466666668 0
0.3866666556 -0.0466666668 0
0.3733333348 -0.0466666668 0
0.3600000144 -0.0466666668 0
0.346666664 -0.0466666668 0
0.3333333432 -0.0466666668 0
0.3199999928 -0.0466666668 0
0.3066666724 -0.0466666668 0
0.293333322 -0.0466666668 0
0.2800000012 -0.0466666668 0
0.2666666804 -0.0466666668 0
0.25333333 -0.0466666668 0
0.2399999948 -0.0466666668 0
0.226666674 -0.0466666668 0
0.2133333384 -0.0466666668 0
0.2000000028 -0.0466666668 0
0.1866666676 -0.0466666668 0
0.173333332 -0.0466666668 0
0.1599999964 -0.0466666668 0
0.1466666608 -0.0466666668 0
0.1333333404 -0.0466666668 0
0.1199999972 -0.0466666668 0
0.1066666692 -0.0466666668 0
0.0933333336 -0.0466666668 0
0.0799999984 -0.0466666668 0
0.06666667 -0.0466666668 0
0.0533333348 -0.0466666668 0
0.03999999912 -0.0466666668 0
0.02666666732 -0.0466666668 0
0.01333333364 -0.0466666668 0
0.0 -0.0466666668 0
0.400000004 -0.0599999988 0
0.3866666556 -0.0599999988 0
0.3733333348 -0.0599999988 0
0.3600000144 -0.0599999988 0
0.346666664 -0.0599999988 0
0.3333333432 -0.0599999988 0
0.3199999928 -0.0599999988 0
0.3066666724 -0.0599999988 0
0.293333322 -0.0599999988 0
0.2800000012 -0.0599999988 0
0.2666666804 -0.0599999988 0
0.25333333 -0.0599999988 0
0.2399999948 -0.0599999988 0
0.226666674 -0.0599999988 0
0.2133333384 -0.0599999988 0
0.2000000028 -0.0599999988 0
0.1866666676 -0.0599999988 0
0.173333332 -0.0599999988 0
0.1599999964 -0.0599999988 0
0.1466666608 -0.0599999988 0
0.1333333404 -0.0599999988 0
0.1199999972 -0.0599999988 0
0.1066666692 -0.0599999988 0
0.0933333336 -0.0599999988 0
0.0799999984 -0.0599999988 0
0.06666667 -0.0599999988 0
0.0533333348 -0.0599999988 0
0.03999999912 -0.0599999988 0
0.02666666732 -0.0599999988 0
0.01333333364 -0.0599999988 0
0.0 -0.0599999988 0
0.400000004 -0.0733333304 0
0.3866666556 -0.0733333304 0
0.3733333348 -0.0733333304 0
0.3600000144 -0.0733333304 0
0.346666664 -0.0733333304 0
0.3333333432 -0.0733333304 0
0.3199999928 -0.0733333304 0
0.3066666724 -0.0733333304 0
0.293333322 -0.0733333304 0
0.2800000012 -0.0733333304 0
0.2666666804 -0.0733333304 0
0.25333333 -0.0733333304 0
0.2399999948 -0.0733333304 0
0.226666674 -0.0733333304 0
0.2133333384 -0.0733333304 0
0.2000000028 -0.0733333304 0
0.1866666676 -0.0733333304 0
0.173333332 -0.0733333304 0
0.1599999964 -0.0733333304 0
0.1466666608 -0.0733333304 0
0.1333333404 -0.0733333304 0
0.1199999972 -0.0733333304 0
0.1066666692 -0.0733333304 0
0.0933333336 -0.0733333304 0
0.0799999984 -0.0733333304 0
0.06666667 -0.0733333304 0
0.0533333348 -0.0733333304 0
0.03999999912 -0.0733333304 0
0.02666666732 -0.0733333304 0
0.01333333364 -0.0733333304 0
0.0 -0.0733333304 0
0.400000004 -0.086666666 0
0.3866666556 -0.086666666 0
0.3733333348 -0.086666666 0
0.3600000144 -0.086666666 0
0.346666664 -0.086666666 0
0.3333333432 -0.086666666 0
0.3199999928 -0.086666666 0
0.3066666724 -0.086666666 0
0.293333322 -0.086666666 0
0.2800000012 -0.086666666 0
0.2666666804 -0.086666666 0
0.25333333 -0.086666666 0
0.2399999948 -0.086666666 0
0.226666674 -0.086666666 0
0.2133333384 -0.086666666 0
0.2000000028 -0.086666666 0
0.1866666676 -0.086666666 0
0.173333332 -0.086666666 0
0.1599999964 -0.086666666 0
0.1466666608 -0.086666666 0
0.1333333404 -0.086666666 0
0.1199999972 -0.086666666 0
0.1066666692 -0.086666666 0
0.0933333336 -0.086666666 0
0.0799999984 -0.086666666 0
0.06666667 -0.086666666 0
0.0533333348 -0.086666666 0
0.03999999912 -0.086666666 0
0.02666666732 -0.086666666 0
0.01333333364 -0.086666666 0
0.0 -0.086666666 0
0.400000004 -0.1000000016 0
0.3866666556 -0.1000000016 0
0.3733333348 -0.1000000016 0
0.3600000144 -0.1000000016 0
0.346666664 -0.1000000016 0
0.3333333432 -0.1000000016 0
0.3199999928 -0.1000000016 0
0.3066666724 -0.1000000016 0
0.293333322 -0.1000000016 0
0.2800000012 -0.1000000016 0
0.2666666804 -0.1000000016 0
0.25333333 -0.1000000016 0
0.2399999948 -0.1000000016 0
0.226666674 -0.1000000016 0
0.2133333384 -0.1000000016 0
0.2000000028 -0.1000000016 0
0.1866666676 -0.1000000016 0
0.173333332 -0.1000000016 0
0.1599999964 -0.1000000016 0
0.1466666608 -0.1000000016 0
0.1333333404 -0.1000000016 0
0.1199999972 -0.1000000016 0
0.1066666692 -0.1000000016 0
0.0933333336 -0.1000000016 0
0.0799999984 -0.1000000016 0
0.06666667 -0.1000000016 0
0.0533333348 -0.1000000016 0
0.03999999912 -0.1000000016 0
0.02666666732 -0.1000000016 0
0.01333333364 -0.1000000016 0
0.0 -0.1000000016 0
0.400000004 -0.1133333372 0
0.3866666556 -0.1133333372 0
0.3733333348 -0.1133333372 0
0.3600000144 -0.1133333372 0
0.346666664 -0.1133333372 0
0.3333333432 -0.1133333372 0
0.3199999928 -0.1133333372 0
0.3066666724 -0.1133333372 0
0.293333322 -0.1133333372 0
0.2800000012 -0.1133333372 0
0.2666666804 -0.1133333372 0
0.25333333 -0.1133333372 0
0.2399999948 -0.1133333372 0
0.226666674 -0.1133333372 0
0.2133333384 -0.1133333372 0
0.2000000028 -0.1133333372 0
0.1866666676 -0.1133333372 0
0.173333332 -0.1133333372 0
0.1599999964 -0.1133333372 0
0.1466666608 -0.1133333372 0
0.1333333404 -0.1133333372 0
0.1199999972 -0.1133333372 0
0.1066666692 -0.1133333372 0
0.0933333336 -0.1133333372 0
0.0799999984 -0.1133333372 0
0.06666667 -0.1133333372 0
0.0533333348 -0.1133333372 0
0.03999999912 -0.1133333372 0
0.02666666732 -0.1133333372 0
0.01333333364 -0.1133333372 0
0.0 -0.1133333372 0
0.400000004 -0.1266666652 0
0.3866666556 -0.1266666652 0
0.3733333348 -0.1266666652 0
[...]
POINT_DATA 961
SCALARS Temp float 1
LOOKUP_TABLE default
0.6806495887855519
0.707834936230008
0.727344101346837
0.7415291681292212
0.751922672648448
0.7595755091806472
0.7652358490538596
0.7694421973868738
0.7725865001498499
0.7749559409200747
0.7767634417996846
0.7781688128304394
0.7792941826688548
0.7802360077285769
0.781074032665956
0.7818783985772081
0.7827161520945772
0.7836572289270924
0.7847807399001862
0.7861821623055043
0.7879820979034181
0.7903378032720481
0.7934578875692049
0.7976231955543277
0.8032148434737474
0.8107540069845829
0.8209586073270394
0.8348262420226411
0.853760504900009
0.8797984171447979
0.9161712070042346
0.7184127769360831
0.7450699287120763
0.7643695496703262
0.7784769674905381
0.7888347792052276
0.7964729611789055
0.8021288828400194
0.8063359083335058
0.8094832973119488
0.8118568356081485
0.813668727719081
0.8150784461448779
0.8162080001576355
0.8171538436724433
0.8179957838087941
0.8188040623643568
0.8196458406185128
0.8205911683223216
0.8217192525463568
0.8231256237922144
0.8249308540072601
0.8272920104053259
0.8304172375178456
0.8345864070461373
0.8401787511192109
0.847711856097527
0.8578967462068438
0.8717167622959134
0.8905458152707999
0.9163182540460509
0.9518358299815607
2.4864501113561372
2.490410422256965
2.501447913502929
2.5116277354952707
2.5200455478651147
2.5267429063081703
2.5319866492632612
2.5360648402434007
2.539232994616621
2.5417031823329217
2.543646977704263
2.5452023321923662
2.5464810229873223
2.5475756195698165
2.5485656835524737
2.54952331225807
2.5505182943814138
2.551623166322683
2.552918442404317
2.5544983439959497
2.556477347463122
2.5589977677498394
2.562238508418708
2.5664246342199655
2.5718362715976752
2.578812273678575
2.5877355277221743
2.5989608193662637
2.612542812022917
2.6272655723892617
2.6325512023163835
4.232453306082979
4.234614474683315
4.2399187826726275
4.246546642872469
4.252830729949735
4.258278733999901
4.262810662516014
4.266502774576709
4.269481190131225
4.271878827906744
4.273818987503384
4.275410443651912
4.27674765421448
4.277913168463604
4.278980890351882
4.280019657107353
4.2810969444082305
4.282282643608231
4.283652941338176
4.285294311804332
4.287307536754362
4.289811473030532
4.292945742758837
4.296870666753425
4.301760437441447
4.307780897327545
4.315031944846153
4.323405202034321
4.332241553894361
4.33931537827534
4.342197492965711
5.973299855245639
5.974449947783135
5.97755814647058
5.981766485498418
5.986247912668064
5.9904585266595705
5.994174466353239
5.997342877318635
5.999994230902628
6.002194813672261
6.004022761378896
6.005556658690652
6.006870884649984
6.008034541859369
6.009112239888053
6.010165850360805
6.011256763062023
6.012448352573351
6.013808467747177
6.015411724225708
6.01734124417575
6.01968921123783
6.022554985111073
6.02603858132546
6.030225192488256
6.035152918944009
6.04074924657077
6.046713710864226
6.052319195643756
6.0564610198163855
6.057993857015954
7.711034926605386
7.7117353524197885
7.71367339410303
7.716448070024827
7.719595295443766
7.722744868072597
7.725670728637979
7.728270879469795
7.730521754427973
7.732443780499391
7.7340795627626715
7.735481209405821
7.736703604776124
7.737801347613033
7.738827847424351
7.73983567672379
7.740877612188332
7.742007955379293
7.743283817963183
7.7447660206502755
7.746519119025322
7.748609815574291
7.751102497461663
7.75405000099769
7.757476466913107
7.761347983838103
7.7655265312010995
7.769708900903526
7.7733999185670335
7.775979464198645
7.7769119681646925
9.44667548666077
9.447121507122318
9.448378927292444
9.45023766338726
9.452435097645237
9.454731369313878
9.456952527285432
9.458996612775776
9.460819600082965
9.462416477711772
9.463805873107358
9.465019405740753
9.466095078136133
9.467073598121218
9.467996636699771
9.46890630811457
9.469845353122055
9.47085760512888
9.47198838846472
9.473284465245367
9.47479304093756
9.476559162513162
9.478620519510033
9.480998422651094
9.483683410131386
9.486614534220333
9.489654041737312
9.492568461752777
9.495036727652662
9.496707688020514
9.49730058863896
11.180669869153792
11.180957063636807
11.181775676632952
11.183011054975744
11.184511763769127
11.18612815711862
11.187739502737717
11.189264568673266
11.190659387299423
11.19190896050936
11.193018184647823
11.194004385984503
11.194892048384906
11.195709489726221
11.196486986449434
11.197255885651819
11.198048311037141
11.198897107101612
11.1998357078265
11.200897590333446
11.202114906860013
11.203515798117555
11.205119749853845
11.206930412288521
11.208925501048785
11.211044541555745
11.21317774496279
11.215162911276652
11.216799550591926
11.217885019623843
11.218265991530052
12.913240772033975
12.913417925332592
12.913926572047652
12.914704746549079
12.915667779426517
12.916727678169517
12.91780863975318
12.918855193236482
12.919833494481097
12.920728272340105
12.921538209104412
12.922271467589663
12.92294216660188
12.92356794416334
12.92416843141189
12.924764393646061
12.925377289026377
12.926028994202433
12.926741466555189
12.927536095405419
12.928432461075204
12.929446192096215
12.930585581560182
12.93184679300278
12.933207801246429
12.934622131004714
12.936014745486128
12.937283697116161
12.938310986403293
12.938983220189744
12.939217471211514
14.644496732502155
14.64458924030961
14.644856316850047
14.645269280812256
14.645788092737085
14.646369801087612
14.646975808434458
14.64757627512682
14.64815151839959
14.648691199344254
14.649192452042339
14.64965780164753
14.650093372055515
14.650507553464879
14.650910099010316
14.651311555847782
14.651722913288904
14.6521553363337
14.652619861058872
14.653126919306413
14.653685548733769
14.654302144660479
14.654978619364517
14.655709969664688
14.656481454719739
14.65726604981367
14.65802334479181
14.658701370000216
14.659242469531058
14.65959297434529
14.65971447121874
16.37448979915571
16.374509138977846
16.37456596319864
16.374656906143912
16.374777020664457
16.37492055815966
16.37508173874387
16.375255347548613
16.375437098692192
16.37562376813224
16.375813165875844
16.376004006390207
16.37619573722615
16.376388364237243
16.376582285986526
16.376778142759044
16.376976679104207
16.377178608799866
16.377384473315004
16.37759448359246
16.37780833691788
16.378025007959884
16.378242517123223
16.378457708359292
16.378666077162805
16.37886172996776
16.379037564862497
16.379185751820017
16.379298531098634
16.37936923750706
16.379393342071403
16.471013161228903
16.47102908940903
16.471076064621663
16.471151787192298
16.471252815689077
16.47137504370865
16.471514196936656
16.471666249879465
16.471827717515637
16.471995802670023
16.472168431015305
16.472344200141148
16.47252228062034
16.472702297831248
16.47288420621652
16.473068164251288
16.473254413676887
16.473443157439032
16.473634432914857
16.473827976084937
16.474023074463
16.474218413351558
16.474411922523807
16.474600652761865
16.474780710914334
16.47494730531768
16.475094946865024
16.475217834522095
16.47531041444684
16.475368040829963
16.47538761309183
16.56743692736101
16.567450300251018
16.56748985382939
16.567553970698267
16.56764019519389
16.567745533551175
16.567866780492892
16.568000809434597
16.56814479567771
16.56829634974922
16.568453575140715
16.568615059295492
16.568779820675232
16.56894723184667
16.569116927234234
16.569288703884204
16.56946242090426
16.569637895507693
16.56981479592342
16.569992530678476
16.570170135591173
16.570346165268013
16.570518596398045
16.57068476679174
16.5708413677565
16.5709845214897
16.571109964099364
16.571213341186194
16.571290598415686
16.57133841572115
16.57135460899938
16.663765940819587
16.663777351573266
16.663811178283346
16.66386625320308
16.663940781993325
16.66403253764108
16.66413907886219
16.66425795279208
16.664386862175984
16.664523776189977
16.664666991480736
16.66481514340948
16.664967180887068
16.665122318114886
16.66527996873631
16.665439669645075
16.665601000680862
16.66576350006359
16.665926577950422
16.666089429820993
16.66625095272296
16.66640967149206
16.666563680872695
16.666710621973813
16.666847702449154
16.66697177939336
16.667079512706803
16.66716758702026
16.667232985687527
16.667273281291877
16.66728689572212
16.760003843359634
16.760013714887858
16.76004303094583
16.760090927575664
16.760156063642178
16.760236748979896
16.760331092919845
16.760437146719163
16.76055302765962
16.76067700730123
16.760807567408126
16.76094341945729
16.76108349551157
16.761226919245853
16.761372960102896
16.761520976428333
16.76167035356205
16.761820437608755
16.761970468257946
16.762119513372113
16.76226640890502
16.762409710648086
16.762547661992407
16.76267819158811
16.762798944841563
16.762907360644327
16.763000794762135
16.76307668502692
16.7631327450103
16.763167161792822
16.76317876838375
16.856153396239666
16.85616203813793
16.856187738743493
16.85622984375998
16.85628732848214
16.856358884186413
16.85644302074889
16.856538167497337
16.85664276511561
16.856755334339137
16.856874523912833
16.856999132142658
16.85712810661476
16.85726052793948
16.857395578694856
16.857532502114132
16.857670555879515
16.85780896198224
16.85794685627064
16.85808324066332
16.858216941467763
16.858346579335084
16.858470553456982
16.85858705044812
16.858694078496146
16.858789533766092
16.85887129761955
16.858937359358485
16.85898595440761
16.859015701182997
16.859025717849775
16.949135555468708
16.94914319830982
16.949165953165203
16.949203313251537
16.949254478655472
16.949318415611693
16.949393928462023
16.94947973166587
16.94957451799136
16.94967701135482
16.949786006564494
16.94990038995749
16.950019143720045
16.950141337907425
16.95026611014758
16.9503926364934
16.95052009806258
16.950647644324732
16.95077435648668
16.95089921378795
16.951021065715885
16.951138614662277
16.95125041037441
16.95135486416054
16.951450281495223
16.951534917510315
16.951607052822727
16.951665084939396
16.95170762785259
16.951733608234093
16.951742346021877
17.0358488920747
17.03585571106774
17.03587603105022
17.03590945086731
17.035955332896496
17.036012844368866
17.036081008541984
17.036158756566973
17.036244978325268
17.036338562865826
17.036438430778254
17.036543552718385
17.03665295590917
17.036765721494255
17.03688097198897
17.03699785145077
17.03711550230559
17.03723303943963
17.037349524631395
17.037463943770785
17.037575189341318
17.037682051777306
17.03778322013065
17.037877298249647
17.037962834085164
17.038038365211346
17.038102477756603
17.038153874793746
17.03819144888329
17.038214350666685
17.038222045456124
17.11626297980342
17.116269112225407
17.116287399063662
17.11631751596181
17.116358944133594
17.116410999590386
17.116472870037136
17.116543652580084
17.116622391899753
17.11670811119469
17.116799838377286
17.116896622192062
17.11699753956783
17.11710169637841
17.117208220425386
17.117316248626977
17.117424911724605
17.117533316825405
17.117640530410476
17.11774556382771
17.11784736322057
17.117944806742614
17.118036708854945
17.118121836671776
17.118198935489694
17.118266765812326
17.118324149195647
17.11837001976344
17.118403477632224
17.118423838511024
17.11843067408436
17.19034954434031
17.190355100116516
17.19037167654296
17.19039900587679
17.190436657484376
17.190484058806856
17.190540522337685
17.190605273316095
17.190677478665275
17.190756270766418
17.190840768673414
17.190930091951323
17.1910233681837
17.19111973588736
17.19121834141568
17.191318331359867
17.191418843229535
17.191518994455606
17.191617871907667
17.191714523529807
17.19180795358232
17.19189712372704
17.191980959331225
17.192058365079113
17.19212824686619
17.19218954185859
17.192241254318223
17.19228249473708
17.19231251964299
17.1923307679642
17.192336890294268
17.258082421028277
17.258087490071738
17.258102620832926
17.258127587822884
17.25816202657157
17.25820544888057
17.25825726284223
17.258316793411737
17.25838330460712
17.258456017915115
17.25853412958427
17.258616822479034
17.258703273404745
17.25879265736348
17.25888414721499
17.258976909900625
17.259070101575
17.259162861453728
17.259254306177105
17.259343525927473
17.259429583401666
17.259511517398444
17.259588350127935
17.259659101704347
17.259722808811798
17.25977854918436
17.259825469809098
17.259862816958062
17.259889966220566
17.259906449542065
17.259911976757536
17.31943753966543
17.319442197055707
17.31945610379424
17.31947906626984
17.319510770182728
17.319550791807504
17.319598613090537
17.319653637133555
17.319715205472324
17.319782612486513
17.319855119652424
17.319931965749763
17.32001237386225
17.32009555644907
17.32018071692835
17.32026704867135
17.32035373339912
17.320439938602647
17.320524815453567
17.320607498137786
17.32068710540488
17.32076274572641
17.320833525009604
17.320898559869704
17.32095699355473
17.321008016022247
17.32105088636676
17.321084956144396
17.32110969234457
17.321124697795227
17.321129727256874
17.37439329393856
17.374397603633778
17.37441047559137
17.374431740458903
17.374461122292974
17.374498247013445
17.37454265399647
17.374593807909324
17.37465111239114
17.37471392150098
17.37478155163836
17.37485329042177
17.374928403326646
17.37500613923394
17.375085733339738
17.375166408133442
17.37524737415392
17.37532783000331
17.375406962812555
17.375483949846064
17.375557961799178
17.37562816890307
17.375693748694804
17.375753898116017
17.375807847175555
17.375854875586814
17.375894330830192
17.3759256465247
17.37594836027135
17.375962129302206
17.375966742711583
17.422929865441954
17.422933882989206
17.422945884845852
17.422965720226472
17.42299314266767
17.423027816494265
17.423069325905686
17.423117184188587
17.423170844766958
17.423229710463538
17.42329314364609
17.423360474056143
17.42343100509818
17.423504019649567
17.423578783873037
17.423654549597856
17.423730556756517
17.423806035253047
17.423880207239876
17.423952290299738
17.42402150190429
17.424087066054792
17.424148220920603
17.42420422988231
17.424254393364926
17.424298062811083
17.424334655453414
17.424363669025098
17.424384695864383
17.424397435134537
17.424401702292027
17.465030152818994
17.46503392736026
17.465045205052096
17.46506384934109
17.46508963644574
17.465122260411523
17.46516134040127
17.465206428023535
17.465257016462672
17.46531254813373
17.465372423489825
17.46543600803458
17.465502638300357
17.465571627784943
17.46564227136885
17.46571384867513
17.465785627684557
17.465856867909512
17.465926823934414
17.465994749673243
17.466059903580657
17.466121555565703
17.466178994410562
17.46623153790566
17.46627854322852
17.466319418871304
17.46635363694379
17.466380745181183
17.466400378320362
17.46641226784081
17.46641624944904
17.500678926524483
17.50068250231837
17.500693187463952
17.50071085626359
17.500735302293837
17.500766242460703
17.500803323006316
17.50084612548911
17.500894174520052
17.50094694424674
17.501003866161007
17.501064335486966
17.501127716895905
17.501193350489018
17.50126055661196
17.501328639886413
17.501396893637473
17.501464603971097
17.50153105418013
17.50159552972079
17.50165732389692
17.501715744885846
17.501770122911466
17.50181981962614
17.501864237354408
17.501902829468165
17.501935110851147
17.50196066792266
17.501979168029887
17.501990367400804
17.501994117205786
17.529863538374954
17.52986695597002
17.529877169292295
17.52989406080091
17.52991743715121
17.52994703254848
17.52998251384644
17.53002348557344
17.530069496670215
17.53012004613269
17.530174590086222
17.530232547706202
17.53029330672008
17.530356229391423
17.530420657588927
17.53048591726991
17.53055132345554
17.530616184920543
17.530679809179418
17.530741507931783
17.530800603033498
17.530856433543814
17.530908362664718
17.530955786521346
17.53099814254131
17.53103491867401
17.531065662507732
17.53108998985626
17.531107592725466
17.531118245989745
17.5311218124428
17.552573582441507
17.55257687960934
17.552586733664473
17.55260303299787
17.552625593797924
17.552654162923343
17.552688422375233
17.552727993665687
17.552772443859347
17.55282129062925
17.552874008809724
17.552930035979706
17.55298877780133
17.55304961398536
17.553111903517514
17.553174989436855
17.553238204169606
17.55330087462085
17.553362327537812
17.55342189525116
17.553478921812257
17.55353277001773
17.553582828150404
17.55362851830291
17.553669304123808
17.553704699205188
17.553734275242633
17.553757669610047
17.553774592329432
17.553784831859186
17.5537882594445
17.56880082195842
17.56880403445806
17.568813635876534
17.568829518636093
17.568851505414955
17.568879351708865
17.568912749895055
17.568951333173104
17.568994681149313
17.56904232450721
17.56909375121286
17.569148411870927
17.569205724948002
17.569265082714946
17.569325856565396
17.56938740197627
17.56944906406325
17.569510182922226
17.569570099224208
17.56962816013346
17.569683725535135
17.569736175024453
17.569784914498545
17.56982938416007
17.569869065831806
17.569903490784487
17.56993224725873
17.56995498737076
17.56997143342544
17.569981383122204
17.569984713447386
17.578539514136132
17.578542676361323
17.57855212775022
17.57856776306564
17.578589408758205
17.57861682535308
17.578649711284115
17.578687706593612
17.578730398258074
17.578777324639994
17.578827981494538
17.578881827194213
17.57893828788404
17.578996763406074
17.579056632665765
17.579117258690633
17.57917799430559
17.579238187609885
17.57929718769644
17.579354350663063
17.579409045883356
17.579460662967673
17.57950861826277
17.579552362666217
17.579591388690087
17.57962523796622
17.579653508403016
17.579675860709813
17.57969202433705
17.57970180235232
17.57970507507381
17.581786123046285
17.5817892685998
17.581798670233884
17.581814223478908
17.581835756023313
17.581863030044012
17.581895745966285
17.581933546085907
17.581976019810842
17.58202270804253
17.58207310911778
17.582126683990474
17.582182861364146
17.582241043610107
17.58230061214834
17.582360932537213
17.582421360186565
17.582481245877513
17.582539941520906
17.58259680619739
17.58265121244105
17.582702553189787
17.582750248253895
17.58279375206774
17.582832560671278
17.582866219109924
17.582894328472435
17.582916552291532
17.582932622363117
17.582942343515562
17.582945597159366
