# vtk DataFile Version 2.0
Unstructured Grid Example
ASCII
DATASET UNSTRUCTURED_GRID

POINTS 961 float
0.400000004 0.01999999956 0
0.3866666556 0.01999999956 0
0.3733333348 0.01999999956 0
0.3600000144 0.01999999956 0
0.346666664 0.01999999956 0
0.3333333432 0.01999999956 0
0.3199999928 0.01999999956 0
0.3066666724 0.01999999956 0
0.293333322 0.01999999956 0
0.2800000012 0.01999999956 0
0.2666666804 0.01999999956 0
0.25333333 0.01999999956 0
0.2399999948 0.01999999956 0
0.226666674 0.01999999956 0
0.2133333384 0.01999999956 0
0.2000000028 0.01999999956 0
0.1866666676 0.01999999956 0
0.173333332 0.01999999956 0
0.1599999964 0.01999999956 0
0.1466666608 0.01999999956 0
0.1333333404 0.01999999956 0
0.1199999972 0.01999999956 0
0.1066666692 0.01999999956 0
0.0933333336 0.01999999956 0
0.0799999984 0.01999999956 0
0.06666667 0.01999999956 0
0.0533333348 0.01999999956 0
0.03999999912 0.01999999956 0
0.02666666732 0.01999999956 0
0.01333333364 0.01999999956 0
0.0 0.01999999956 0
0.400000004 0.00666666684 0
0.3866666556 0.00666666684 0
0.3733333348 0.00666666684 0
0.3600000144 0.00666666684 0
0.346666664 0.00666666684 0
0.3333333432 0.00666666684 0
0.3199999928 0.00666666684 0
0.3066666724 0.00666666684 0
0.293333322 0.00666666684 0
0.2800000012 0.00666666684 0
0.2666666804 0.00666666684 0
0.25333333 0.00666666684 0
0.2399999948 0.00666666684 0
0.226666674 0.00666666684 0
0.2133333384 0.00666666684 0
0.2000000028 0.00666666684 0
0.1866666676 0.00666666684 0
0.173333332 0.00666666684 0
0.1599999964 0.00666666684 0
0.1466666608 0.00666666684 0
0.1333333404 0.00666666684 0
0.1199999972 0.00666666684 0
0.1066666692 0.00666666684 0
0.0933333336 0.00666666684 0
0.0799999984 0.00666666684 0
0.06666667 0.00666666684 0
0.0533333348 0.00666666684 0
0.03999999912 0.00666666684 0
0.02666666732 0.00666666684 0
0.01333333364 0.00666666684 0
0.0 0.00666666684 0
0.400000004 -0.00666666684 0
0.3866666556 -0.00666666684 0
0.3733333348 -0.00666666684 0
0.3600000144 -0.00666666684 0
0.346666664 -0.00666666684 0
0.3333333432 -0.00666666684 0
0.3199999928 -0.00666666684 0
0.3066666724 -0.00666666684 0
0.293333322 -0.00666666684 0
0.2800000012 -0.00666666684 0
0.2666666804 -0.00666666684 0
0.25333333 -0.00666666684 0
0.2399999948 -0.00666666684 0
0.226666674 -0.00666666684 0
0.2133333384 -0.00666666684 0
0.2000000028 -0.00666666684 0
0.1866666676 -0.00666666684 0
0.173333332 -0.00666666684 0
0.1599999964 -0.00666666684 0
0.1466666608 -0.00666666684 0
0.1333333404 -0.00666666684 0
0.1199999972 -0.00666666684 0
0.1066666692 -0.00666666684 0
0.0933333336 -0.00666666684 0
0.0799999984 -0.00666666684 0
0.06666667 -0.00666666684 0
0.0533333348 -0.00666666684 0
0.03999999912 -0.00666666684 0
0.02666666732 -0.00666666684 0
0.01333333364 -0.00666666684 0
0.0 -0.00666666684 0
0.400000004 -0.01999999956 0
0.3866666556 -0.01999999956 0
0.3733333348 -0.01999999956 0
0.3600000144 -0.01999999956 0
0.346666664 -0.01999999956 0
0.3333333432 -0.01999999956 0
0.3199999928 -0.01999999956 0
0.3066666724 -0.01999999956 0
0.293333322 -0.01999999956 0
0.2800000012 -0.01999999956 0
0.2666666804 -0.01999999956 0
0.25333333 -0.01999999956 0
0.2399999948 -0.01999999956 0
0.226666674 -0.01999999956 0
0.2133333384 -0.01999999956 0
0.2000000028 -0.01999999956 0
0.1866666676 -0.01999999956 0
0.173333332 -0.01999999956 0
0.1599999964 -0.01999999956 0
0.1466666608 -0.01999999956 0
0.1333333404 -0.01999999956 0
0.1199999972 -0.01999999956 0
0.1066666692 -0.01999999956 0
0.0933333336 -0.01999999956 0
0.0799999984 -0.01999999956 0
0.06666667 -0.01999999956 0
0.0533333348 -0.01999999956 0
0.03999999912 -0.01999999956 0
0.02666666732 -0.01999999956 0
0.01333333364 -0.01999999956 0
0.0 -0.01999999956 0
0.400000004 -0.03333333508 0
0.3866666556 -0.03333333508 0
0.3733333348 -0.03333333508 0
0.3600000144 -0.03333333508 0
0.346666664 -0.03333333508 0
0.3333333432 -0.03333333508 0
0.3199999928 -0.03333333508 0
0.3066666724 -0.03333333508 0
0.293333322 -0.03333333508 0
0.2800000012 -0.03333333508 0
0.2666666804 -0.03333333508 0
0.25333333 -0.03333333508 0
0.2399999948 -0.03333333508 0
0.226666674 -0.03333333508 0
0.2133333384 -0.03333333508 0
0.2000000028 -0.03333333508 0
0.1866666676 -0.03333333508 0
0.173333332 -0.03333333508 0
0.1599999964 -0.03333333508 0
0.1466666608 -0.03333333508 0
0.1333333404 -0.03333333508 0
0.1199999972 -0.03333333508 0
0.1066666692 -0.03333333508 0
0.0933333336 -0.03333333508 0
0.0799999984 -0.03333333508 0
0.06666667 -0.03333333508 0
0.0533333348 -0.03333333508 0
0.03999999912 -0.03333333508 0
0.02666666732 -0.03333333508 0
0.01333333364 -0.03333333508 0
0.0 -0.03333333508 0
0.400000004 -0.0466666668 0
0.3866666556 -0.0466666668 0
0.3733333348 -0.0466666668 0
0.3600000144 -0.0466666668 0
0.346666664 -0.0466666668 0
0.3333333432 -0.0466666668 0
0.3199999928 -0.0466666668 0
0.3066666724 -0.0466666668 0
0.293333322 -0.0466666668 0
0.2800000012 -0.0466666668 0
0.2666666804 -0.0466666668 0
0.25333333 -0.0466666668 0
0.2399999948 -0.0466666668 0
0.226666674 -0.0466666668 0
0.2133333384 -0.0466666668 0
0.2000000028 -0.0466666668 0
0.1866666676 -0.0466666668 0
0.173333332 -0.0466666668 0
0.1599999964 -0.0466666668 0
0.1466666608 -0.0466666668 0
0.1333333404 -0.0466666668 0
0.1199999972 -0.0466666668 0
0.1066666692 -0.0466666668 0
0.0933333336 -0.0466666668 0
0.0799999984 -0.0466666668 0
0.06666667 -0.0466666668 0
0.0533333348 -0.0466666668 0
0.03999999912 -0.0466666668 0
0.02666666732 -0.0466666668 0
0.01333333364 -0.0466666668 0
0.0 -0.0466666668 0
0.400000004 -0.0599999988 0
0.3866666556 -0.0599999988 0
0.3733333348 -0.0599999988 0
0.3600000144 -0.0599999988 0
0.346666664 -0.0599999988 0
0.3333333432 -0.0599999988 0
0.3199999928 -0.0599999988 0
0.3066666724 -0.0599999988 0
0.293333322 -0.0599999988 0
0.2800000012 -0.0599999988 0
0.2666666804 -0.0599999988 0
0.25333333 -0.0599999988 0
0.2399999948 -0.0599999988 0
0.226666674 -0.0599999988 0
0.2133333384 -0.0599999988 0
0.2000000028 -0.0599999988 0
0.1866666676 -0.0599999988 0
0.173333332 -0.0599999988 0
0.1599999964 -0.0599999988 0
0.1466666608 -0.0599999988 0
0.1333333404 -0.0599999988 0
0.1199999972 -0.0599999988 0
0.1066666692 -0.0599999988 0
0.0933333336 -0.0599999988 0
0.0799999984 -0.0599999988 0
0.06666667 -0.0599999988 0
0.0533333348 -0.0599999988 0
0.03999999912 -0.0599999988 0
0.02666666732 -0.0599999988 0
0.01333333364 -0.0599999988 0
0.0 -0.0599999988 0
0.400000004 -0.0733333304 0
0.3866666556 -0.0733333304 0
0.3733333348 -0.0733333304 0
0.3600000144 -0.0733333304 0
0.346666664 -0.0733333304 0
0.3333333432 -0.0733333304 0
0.3199999928 -0.0733333304 0
0.3066666724 -0.0733333304 0
0.293333322 -0.0733333304 0
0.2800000012 -0.0733333304 0
0.2666666804 -0.0733333304 0
0.25333333 -0.0733333304 0
0.2399999948 -0.0733333304 0
0.226666674 -0.0733333304 0
0.2133333384 -0.0733333304 0
0.2000000028 -0.0733333304 0
0.1866666676 -0.0733333304 0
0.173333332 -0.0733333304 0
0.1599999964 -0.0733333304 0
0.1466666608 -0.0733333304 0
0.1333333404 -0.0733333304 0
0.1199999972 -0.0733333304 0
0.1066666692 -0.0733333304 0
0.0933333336 -0.0733333304 0
0.0799999984 -0.0733333304 0
0.06666667 -0.0733333304 0
0.0533333348 -0.0733333304 0
0.03999999912 -0.0733333304 0
0.02666666732 -0.0733333304 0
0.01333333364 -0.0733333304 0
0.0 -0.0733333304 0
0.400000004 -0.086666666 0
0.3866666556 -0.086666666 0
0.3733333348 -0.086666666 0
0.3600000144 -0.086666666 0
0.346666664 -0.086666666 0
0.3333333432 -0.086666666 0
0.3199999928 -0.086666666 0
0.3066666724 -0.086666666 0
0.293333322 -0.086666666 0
0.2800000012 -0.086666666 0
0.2666666804 -0.086666666 0
0.25333333 -0.086666666 0
0.2399999948 -0.086666666 0
0.226666674 -0.086666666 0
0.2133333384 -0.086666666 0
0.2000000028 -0.086666666 0
0.1866666676 -0.086666666 0
0.173333332 -0.086666666 0
0.1599999964 -0.086666666 0
0.1466666608 -0.086666666 0
0.1333333404 -0.086666666 0
0.1199999972 -0.086666666 0
0.1066666692 -0.086666666 0
0.0933333336 -0.086666666 0
0.0799999984 -0.086666666 0
0.06666667 -0.086666666 0
0.0533333348 -0.086666666 0
0.03999999912 -0.086666666 0
0.02666666732 -0.086666666 0
0.01333333364 -0.086666666 0
0.0 -0.086666666 0
0.400000004 -0.1000000016 0
0.3866666556 -0.1000000016 0
0.3733333348 -0.1000000016 0
0.3600000144 -0.1000000016 0
0.346666664 -0.1000000016 0
0.3333333432 -0.1000000016 0
0.3199999928 -0.1000000016 0
0.3066666724 -0.1000000016 0
0.293333322 -0.1000000016 0
0.2800000012 -0.1000000016 0
0.2666666804 -0.1000000016 0
0.25333333 -0.1000000016 0
0.2399999948 -0.1000000016 0
0.226666674 -0.1000000016 0
0.2133333384 -0.1000000016 0
0.2000000028 -0.1000000016 0
0.1866666676 -0.1000000016 0
0.173333332 -0.1000000016 0
0.1599999964 -0.1000000016 0
0.1466666608 -0.1000000016 0
0.1333333404 -0.1000000016 0
0.1199999972 -0.1000000016 0
0.1066666692 -0.1000000016 0
0.0933333336 -0.1000000016 0
0.0799999984 -0.1000000016 0
0.06666667 -0.1000000016 0
0.0533333348 -0.1000000016 0
0.03999999912 -0.1000000016 0
0.02666666732 -0.1000000016 0
0.01333333364 -0.1000000016 0
0.0 -0.1000000016 0
0.400000004 -0.1133333372 0
0.3866666556 -0.1133333372 0
0.3733333348 -0.1133333372 0
0.3600000144 -0.1133333372 0
0.346666664 -0.1133333372 0
0.3333333432 -0.1133333372 0
0.3199999928 -0.1133333372 0
0.3066666724 -0.1133333372 0
0.293333322 -0.1133333372 0
0.2800000012 -0.1133333372 0
0.2666666804 -0.1133333372 0
0.25333333 -0.1133333372 0
0.2399999948 -0.1133333372 0
0.226666674 -0.1133333372 0
0.2133333384 -0.1133333372 0
0.2000000028 -0.1133333372 0
0.1866666676 -0.1133333372 0
0.173333332 -0.1133333372 0
0.1599999964 -0.1133333372 0
0.1466666608 -0.1133333372 0
0.1333333404 -0.1133333372 0
0.1199999972 -0.1133333372 0
0.1066666692 -0.1133333372 0
0.0933333336 -0.1133333372 0
0.0799999984 -0.1133333372 0
0.06666667 -0.1133333372 0
0.0533333348 -0.1133333372 0
0.03999999912 -0.1133333372 0
0.02666666732 -0.1133333372 0
0.01333333364 -0.1133333372 0
0.0 -0.1133333372 0
0.400000004 -0.1266666652 0
0.3866666556 -0.1266666652 0
0.3733333348 -0.1266666652 0
[...]
POINT_DATA 961
SCALARS Temp float 1
LOOKUP_TABLE default
0.7259583961591038
0.7549534057925393
0.7757612819619004
0.7908906771066546
0.8019761412171571
0.8101385215273318
0.8161757911711389
0.8206623002883531
0.8240160838473147
0.8265434406327085
0.8284714644980463
0.8299706016283682
0.8311711083971798
0.8321758599436591
0.8330699071585629
0.8339280580854489
0.8348218203494223
0.8358257830498542
0.8370243212946733
0.8385192663156563
0.8404392465317431
0.842951985518749
0.8462799782456188
0.8507227643313986
0.8566868303296431
0.8647280463900618
0.8756121260889346
0.890403077891849
0.910597934405659
0.938369323688701
0.9771635817313766
0.7662352905110009
0.7946669438646536
0.8152513288645662
0.8302979089465052
0.8413453081559964
0.8494920633225068
0.8555246265757753
0.8600118647953241
0.8633689477345525
0.8659006833035958
0.8678333998875493
0.8693371835592173
0.8705421632531307
0.8715512113312546
0.8724494451894577
0.8733117801575968
0.8742098460197985
0.8752183533889761
0.8764217799060883
0.877922013438162
0.879847650492901
0.8823662125665134
0.8856996989669013
0.8901466113792612
0.8961114267198087
0.9041461868113378
0.9150092489904086
0.9297494158825388
0.9498320610353127
0.9773203051166492
1.015202414539647
2.6519619090090436
2.656185887656236
2.667958235721853
2.6788159022322677
2.687794344209883
2.694937879748051
2.700531105597469
2.7048812559599087
2.7082608497395793
2.710896067870182
2.712969899489853
2.7146294722736575
2.7159939968995506
2.71716219743403
2.7182189239619436
2.7192410652719667
2.720303047816993
2.7214822287350593
2.7228644743331047
2.7245502706924793
2.726661707605418
2.7293505670879967
2.732807655984341
2.7372730158555543
2.7430454160319275
2.7504862625812936
2.7600039275846666
2.771976810994833
2.786463210673001
2.8021662402999437
2.80780379470002
4.514187488246037
4.516492587738128
4.522150191778811
4.529219585909188
4.5359224515956695
4.541733701659744
4.546568011898836
4.55050670979464
4.553684301755998
4.556242544563598
4.558312934670845
4.56001147599571
4.5614389018761905
4.562683243800672
4.563823312043586
4.564932512619775
4.56608279926311
4.567348702249404
4.568811466413043
4.570563309361232
4.572711709191041
4.57538342298805
4.5787273562083275
4.582914491753804
4.588130608463423
4.594552580274572
4.602286947884354
4.611218110934786
4.620643068752004
4.6281880274772575
4.631262083200138
6.370912913613132
6.3721396601718645
6.37545504857415
6.379943997328466
6.38472439424182
6.389216124540897
6.393180415967036
6.396560884663108
6.39939001773878
6.401738500180273
6.4036896536243315
6.405327277356405
6.406730684090864
6.407973558076634
6.409124790850956
6.4102503533583
6.411415702459856
6.412688411985151
6.414140828140692
6.4158525148493935
6.417912109496204
6.420417915012964
6.423475889099215
6.42719269009107
6.431659167862325
6.436915946333306
6.442885672499365
6.449247869198452
6.455227005797232
6.459644853029412
6.461279832726444
8.224319401447689
8.225066576622169
8.227133998833141
8.230093990036284
8.233451565768696
8.236811870908465
8.239933786099543
8.242708509719828
8.245110890536164
8.247162696987905
8.248909350206992
8.250406405500843
8.251712377825505
8.252885476470246
8.253982641540613
8.255059919901448
8.256173575928708
8.257381500425584
8.258744581675378
8.260327664492122
8.262199578027044
8.264431442336374
8.267091909306622
8.270237312518642
8.273893381326733
8.27802393016536
8.28248173544991
8.286943391237733
8.2908807479123
8.29363239482795
8.294627103295612
10.075491522952758
10.075967387149301
10.077308968750703
10.079292194171774
10.081636955487632
10.084087413438779
10.0864580227886
10.088640020067535
10.090586428680481
10.092291880848133
10.09377621913092
10.09507314103629
10.096223150378716
10.097269635043693
10.098257009213494
10.099230159139289
10.10023463897144
10.10131716826899
10.102526057127804
10.103911149842638
10.105522764593136
10.107408918711798
10.109609783907699
10.112148064607583
10.115013646249116
10.118141503170957
10.121384693710441
10.124494189058124
10.127127536239472
10.128910197871303
10.129542723735783
11.924907364963047
11.925213861280548
11.926087517318306
11.927406041683504
11.92900790883059
11.93073349745249
11.932454020886947
11.934082818748868
11.935572972353437
11.936908457976504
11.938094468021589
11.939149449912112
11.94009948312918
11.940974734785547
11.941807459722408
11.942631053881337
11.94347974110793
11.944388514035316
11.945392994449268
11.946528850980723
11.947830340402245
11.949327442526881
11.951040907977763
11.952974599964561
11.955104723191683
11.957366752651522
11.959643569270854
11.96176215710397
11.963508664889252
11.96466694849991
11.965073467429068
13.772804359253634
13.772993521476172
13.77353667396964
13.774367719108174
13.775396339512184
13.776528668970668
13.777683837870095
13.778802658023995
13.779849003894157
13.780806555764846
13.781673873073796
13.782459624117141
13.783178827287664
13.783850252562933
13.784494794273916
13.785134555425586
13.785792377526008
13.786491548436103
13.787255442616651
13.788106829629681
13.78906655105557
13.790151235523691
13.791369690203014
13.792717787972384
13.79417200524378
13.795682744084607
13.797169947432339
13.798524859986486
13.79962161023386
13.80033924418855
13.800589306658198
15.619298178171704
15.619397094297707
15.61968269762435
15.620124389394135
15.620679451255294
15.621302053700123
15.621951006180096
15.622594454143503
15.6232113716393
15.623790694476076
15.624329325274113
15.62482991338564
15.6252989437079
15.625745316094367
15.626179382384239
15.626612340143167
15.627055857959697
15.627521791805865
15.628021860716867
15.628567140401657
15.62916722125032
15.629828877641486
15.630554105165402
15.631337526793406
15.632163383211928
15.633002817515113
15.63381270067396
15.634537579346683
15.635115940401295
15.635490528227752
15.635620364053093
17.46444424581023
17.4644651594335
17.46452662235439
17.464625035479262
17.46475510683399
17.464910683662826
17.465085574131614
17.46527418357837
17.46547190312185
17.46567525170924
17.46588184699835
17.466090267629035
17.466299870958345
17.46651060727204
17.466722843776978
17.466937204166776
17.467154422684985
17.46737520075
17.467600056650134
17.467829157442786
17.468062124260825
17.468297810079736
17.468534053189043
17.468767440810456
17.468993126124307
17.46920478543976
17.469394811358825
17.469554825327922
17.469676529496905
17.469752799410365
17.46977879519144
17.56739214223898
17.56740942074986
17.5674603899014
17.56754258744213
17.567652327151126
17.56778520751515
17.567936642149256
17.568102304526388
17.56827843945883
17.568462020638467
17.568650788496775
17.568843196377006
17.56903830554085
17.56923565975925
17.569435151817302
17.569636890771243
17.56984107382251
17.57004785678898
17.57025721955558
17.570468821861688
17.570681847077097
17.57089483886877
17.571105538222614
17.571310752369712
17.57150628600723
17.571686990227114
17.57184697739398
17.571980032681136
17.57208021072227
17.57214254068642
17.57216370606658
17.670233213708926
17.670247773607485
17.67029084734222
17.670360700134438
17.670454696785313
17.67056962197797
17.670702028885163
17.670848548955355
17.671006130388292
17.671172180714777
17.671344628920036
17.671521916335656
17.671702940721225
17.671886974881048
17.672073568906995
17.67226244496299
17.672453390725952
17.672646149183798
17.672840305095004
17.67303516757362
17.67322965021144
17.673422156013054
17.673610474811998
17.673791718872696
17.673962315256666
17.674118088862603
17.674254458064443
17.67436675033445
17.674450619133594
17.67450250726638
17.674520075493785
17.77297261239636
17.772985089537364
17.77302208505104
17.773082343415425
17.773163934238877
17.773264459248807
17.773381285520408
17.77351176193168
17.773653397922303
17.773803982067957
17.773961647742187
17.7741248856305
17.774292517447062
17.774463645134876
17.774637581286008
17.77481376852544
17.774991694579903
17.775170802779556
17.77535040056198
17.77552956778726
17.775707068082063
17.77588127083186
17.776050090027038
17.776210959793964
17.776360856433698
17.776496387348256
17.77661395506318
17.77670999430167
17.776781264545022
17.776825160132606
17.776839987832915
17.875614202630146
17.87562505140092
17.87565727580679
17.875709943901857
17.87578160794719
17.875870441256616
17.87597439691052
17.87609135994992
17.87621928019411
17.876356266761462
17.876500648301104
17.8766509943446
17.876806106152188
17.876964986511098
17.87712679152022
17.87729077061507
17.877456201288375
17.87762231917893
17.877788247151464
17.877952926256526
17.87811505235262
17.87827302535401
17.878424915450477
17.878568461281443
17.878701104067613
17.87882006998175
17.87892250221924
17.879005637579056
17.8790670133721
17.879104678621086
17.879117378147594
17.978160903063298
17.978170457136756
17.97819887559301
17.978245449555732
17.978309067872413
17.978388309432955
17.97848155293407
17.97858708474294
17.97870319740144
17.978828263307324
17.978960786477998
17.979099426109386
17.979242996887514
17.979390452388003
17.97954085266825
17.97969332091584
17.979846994955963
17.980000974539134
17.980154268301195
17.980305743559676
17.980454082598264
17.980597751372652
17.98073498329122
17.98086378939471
17.980981995345484
17.98108731281466
17.981177443665175
17.98125021127926
17.98130370829941
17.981336442887184
17.981347463452433
18.077327975310297
18.077336481899977
18.07736181255137
18.077403415129982
18.077460417261793
18.077531689744017
18.077615923626567
18.077711707330003
18.07781759988376
18.077932187717792
18.078054127698124
18.078182169740803
18.07831516206358
18.07845204345169
18.078591822364906
18.078733546598446
18.07887626853422
18.07901900679041
18.079160707981355
18.079300211574775
18.07943622103773
18.07956728613048
18.079691797658057
18.079808003365514
18.079914043310183
18.080008009639137
18.080088027983276
18.080152355381834
18.080199486886777
18.08022825845437
18.08023793310599
18.169806881292303
18.169814526237897
18.169837310882997
18.16987479519597
18.16992627897561
18.169990846118537
18.17006741954668
18.17015481685586
18.170251805068695
18.17035714421907
18.170469622557377
18.1705880769414
18.170711400444574
18.170838540347777
18.17096848554554
18.17110024618149
18.17123282980411
18.171365214579026
18.17149632287007
18.171624997786164
18.171749985315362
18.171869925936676
18.17198335603353
18.172088725929516
18.172184431770702
18.172268864697507
18.17234047424225
18.172397841727534
18.17243975803595
18.172465297077352
18.172473876365363
18.25556532411093
18.255572252747218
18.25559291662728
18.255626957108536
18.255673799873737
18.2557326863079
18.255802713213278
18.255882873370062
18.255972096805174
18.25606928427079
18.25617333588997
18.25628316900698
18.25639772673248
18.256515979604
18.256636918926116
18.25675954392519
18.25688284634737
18.257005792720513
18.2571273071189
18.25724625657099
18.257361441171028
18.257471591973797
18.257575376310744
18.257671416037176
18.257758315413078
18.257834701240256
18.257899272326302
18.257950854904553
18.257988460029807
18.258011336800823
18.258019015660583
18.334573393835743
18.334579722281138
18.334598606251475
18.33462974700137
18.334672663432166
18.334726714664676
18.334791129189227
18.334865034758593
18.33494748982828
18.335037509406114
18.335134088412133
18.33523621712241
18.335342889906514
18.335453109217926
18.335565883147233
18.33568021816752
18.335795110138893
18.3359095334946
18.336022430982247
18.336132705657178
18.33623921669346
18.3363407814404
18.336436182906713
18.33652418725617
18.3366035678364
18.33667313791191
18.336731789462632
18.33677853541664
18.33681255253595
18.33683322053501
18.336840153531423
18.40680351193352
18.406809334922198
18.40682671787314
18.40685540666071
18.406894990014997
18.40694491600852
18.407004513797467
18.407073015931054
18.407149582624616
18.407233321900307
18.407323308789046
18.407418598681133
18.40751823589385
18.40762125912219
18.40772670196225
18.407833589762614
18.40794093540832
18.408047733705516
18.408152956322848
18.408255548595967
18.408354429347675
18.408448495643743
18.408536631375586
18.408617723591128
18.408690683103607
18.408754471296547
18.408808130812794
18.408850818095956
18.408881835866463
18.408900662305044
18.40890697426527
18.47223040099763
18.47223579740697
18.472251912148366
18.472278524688267
18.472315276592422
18.472361683763687
18.47241715294551
18.472480998615005
18.472552462024858
18.472630727097155
18.47271493640527
18.472804202788552
18.472897617596505
18.472994257036653
18.47309318477503
18.473193451768463
18.47329409556019
18.473394138503096
18.473492586512926
18.473588429331407
18.47368064312255
18.473768196931772
18.47385006172338
18.47392522543613
18.47399271068942
18.474051596912854
18.47410104489346
18.4741403221784
18.47416882803401
18.47418611556418
18.47419190912891
18.530831461653865
18.53083649846763
18.530851543156338
18.530876400692623
18.530910752944166
18.530954167921617
18.53100611255494
18.531065965704684
18.531133033382407
18.531206561499246
18.531285749380736
18.531369759983793
18.531457727774526
18.53154876560949
18.531641968774505
18.53173641695669
18.531831176083045
18.531925299335537
18.53201782865502
18.53210779745217
18.532194235093
18.53227617439274
18.532352660734777
18.532422765898094
18.5324856033697
18.53254034682459
18.532586250033923
18.532622666998886
18.532649071451864
18.532665073911488
18.53267043498777
18.582586032463368
18.58259076766634
18.58260491417861
18.582628296449563
18.582660627249616
18.582701514803077
18.58275047290023
18.58280693112057
18.58287024726165
18.582939717767715
18.583014589370073
18.583094068201476
18.583177327319866
18.583263513890273
18.583351754207698
18.583441157186755
18.583530818015895
18.583619821173293
18.5837072438855
18.58379216054336
18.583873648448005
18.583950795898517
18.584022711189416
18.584088535333382
18.58414745543924
18.584198720367155
18.584241657142353
18.58427568719642
18.58430034189151
18.584315275926148
18.58432027769944
18.627476360041083
18.62748084476233
18.627494244910462
18.627516399829933
18.627547046012747
18.627585822730637
18.627632280239744
18.627685888001736
18.62774604507732
18.627812088851808
18.6278833052634
18.627958937061493
18.62803819101464
18.62812024524651
18.628204254922437
18.628289356801123
18.628374674166306
18.62845932125477
18.628542408082758
18.628623046028874
18.628700354401804
18.628773468838702
18.6288415500848
18.628903795765915
18.62895945222999
18.62900782803505
18.629048307741822
18.629080365283155
18.629103576587475
18.629117630348
18.629122336276037
18.66548667664216
18.665490956781635
18.665503747045463
18.665524898114903
18.665554164595733
18.66559120958809
18.665635611528753
18.665686870980878
18.665744419551316
18.66580762737652
18.665875812297866
18.66594824746652
18.666024168283865
18.66610277980286
18.66618326285379
18.666264779328163
18.666346477993986
18.666427499904298
18.66650698416373
18.666584074295045
18.66665792532784
18.66672771233309
18.66679263895474
18.666851948394438
18.666904934054816
18.666950951384152
18.666989429718967
18.6670198835463
18.667041923019205
18.66705526282487
18.667059728924933
18.696603936061738
18.69660805354529
18.69662035873266
18.69664071080635
18.69666887799335
18.696704541389717
18.69674730083996
18.69679668071463
18.69685213777132
18.69691306775063
18.69697881378033
18.697048673491953
18.6971219057452
18.697197738043855
18.69727537294603
18.69735399384265
18.697432771371407
18.697510869492167
18.69758745188616
18.697661688836476
18.697732764636076
18.697799886158716
18.697862291152678
18.697919258596762
18.697970118431936
18.698014262183325
18.69805115337463
18.698080337265086
18.698101449850828
18.698114225376635
18.698118502001652
18.720817432725113
18.72082142650297
18.72083336267008
18.720853106580844
18.720880436373797
18.720915046285874
18.720956551868042
18.721004495065678
18.721058351343753
18.721117535662525
18.721181410334307
18.72124929178825
18.721320457129018
18.72139415154323
18.721469594887473
18.721545987791412
18.72162251846519
18.72169836921448
18.7217727232526
18.721844771907485
18.721913722217415
18.7219788054883
18.722039285384888
18.72209446780948
18.722143709966232
18.72218643010399
18.722222116916722
18.722250338207346
18.722270748830848
18.722283097262743
18.72228723052059
18.738118706648248
18.738122613513546
18.738134290364826
18.738153606745325
18.73818034753209
18.738214215920006
18.738254838205297
18.738301768412622
18.738354494937518
18.73841244611522
18.73847499771278
18.73854147945727
18.738611181477733
18.738683361694186
18.73875725251137
18.738832067123145
18.738907006564254
18.738981266499515
18.73905404429071
18.739124546399957
18.739191996089165
18.739255641947345
18.73931476582906
18.739368692399164
18.739416797742404
18.739458518514937
18.7394933606694
18.73952090740898
18.739540826433945
18.73955287589164
18.739556908811505
18.748501875589625
18.74850573087185
18.748517253798255
18.74853631634184
18.74856270729304
18.748596135058307
18.748636232200408
18.74868255981019
18.748734613876046
18.74879183062193
18.748853593791324
18.748919241038855
18.748988070302985
18.74905934718077
18.74913231167673
18.749206184616334
18.749280174830457
18.749353486093515
18.74942532432795
18.74949490511134
18.749561461426623
18.74962425216379
18.749682569963966
18.74973575056646
18.749783181154406
18.749824309165543
18.749858650630784
18.74988579772419
18.749905425613875
18.74991729806191
18.749921271584427
18.75196331834433
18.75196715652492
18.751978628416524
18.75199760678857
18.752023881714962
18.75205716331294
18.752097086204827
18.75214321380753
18.752195044613348
18.75225201745368
18.75231351871506
18.75237888868605
18.752447427907185
18.752518404540304
18.752591061134392
18.752664621073627
18.75273829580366
18.752811291817014
18.75288281790093
18.752952092676693
18.753018352364993
18.753080859277848
18.753138909630813
18.7531918428246
18.753239049704128
18.753279981258142
18.753314156831898
18.753341171545962
18.75336070301887
18.753372516853748
18.753376470709412
