# vtk DataFile Version 2.0
Unstructured Grid Example
ASCII
DATASET UNSTRUCTURED_GRID

POINTS 961 float
0.400000004 0.01999999956 0
0.3866666556 0.01999999956 0
0.3733333348 0.01999999956 0
0.3600000144 0.01999999956 0
0.346666664 0.01999999956 0
0.3333333432 0.01999999956 0
0.3199999928 0.01999999956 0
0.3066666724 0.01999999956 0
0.293333322 0.01999999956 0
0.2800000012 0.01999999956 0
0.2666666804 0.01999999956 0
0.25333333 0.01999999956 0
0.2399999948 0.01999999956 0
0.226666674 0.01999999956 0
0.2133333384 0.01999999956 0
0.2000000028 0.01999999956 0
0.1866666676 0.01999999956 0
0.173333332 0.01999999956 0
0.1599999964 0.01999999956 0
0.1466666608 0.01999999956 0
0.1333333404 0.01999999956 0
0.1199999972 0.01999999956 0
0.1066666692 0.01999999956 0
0.0933333336 0.01999999956 0
0.0799999984 0.01999999956 0
0.06666667 0.01999999956 0
0.0533333348 0.01999999956 0
0.03999999912 0.01999999956 0
0.02666666732 0.01999999956 0
0.01333333364 0.01999999956 0
0.0 0.01999999956 0
0.400000004 0.00666666684 0
0.3866666556 0.00666666684 0
0.3733333348 0.00666666684 0
0.3600000144 0.00666666684 0
0.346666664 0.00666666684 0
0.3333333432 0.00666666684 0
0.3199999928 0.00666666684 0
0.3066666724 0.00666666684 0
0.293333322 0.00666666684 0
0.2800000012 0.00666666684 0
0.2666666804 0.00666666684 0
0.25333333 0.00666666684 0
0.2399999948 0.00666666684 0
0.226666674 0.00666666684 0
0.2133333384 0.00666666684 0
0.2000000028 0.00666666684 0
0.1866666676 0.00666666684 0
0.173333332 0.00666666684 0
0.1599999964 0.00666666684 0
0.1466666608 0.00666666684 0
0.1333333404 0.00666666684 0
0.1199999972 0.00666666684 0
0.1066666692 0.00666666684 0
0.0933333336 0.00666666684 0
0.0799999984 0.00666666684 0
0.06666667 0.00666666684 0
0.0533333348 0.00666666684 0
0.03999999912 0.00666666684 0
0.02666666732 0.00666666684 0
0.01333333364 0.00666666684 0
0.0 0.00666666684 0
0.400000004 -0.00666666684 0
0.3866666556 -0.00666666684 0
0.3733333348 -0.00666666684 0
0.3600000144 -0.00666666684 0
0.346666664 -0.00666666684 0
0.3333333432 -0.00666666684 0
0.3199999928 -0.00666666684 0
0.3066666724 -0.00666666684 0
0.293333322 -0.00666666684 0
0.2800000012 -0.00666666684 0
0.2666666804 -0.00666666684 0
0.25333333 -0.00666666684 0
0.2399999948 -0.00666666684 0
0.226666674 -0.00666666684 0
0.2133333384 -0.00666666684 0
0.2000000028 -0.00666666684 0
0.1866666676 -0.00666666684 0
0.173333332 -0.00666666684 0
0.1599999964 -0.00666666684 0
0.1466666608 -0.00666666684 0
0.1333333404 -0.00666666684 0
0.1199999972 -0.00666666684 0
0.1066666692 -0.00666666684 0
0.0933333336 -0.00666666684 0
0.0799999984 -0.00666666684 0
0.06666667 -0.00666666684 0
0.0533333348 -0.00666666684 0
0.03999999912 -0.00666666684 0
0.02666666732 -0.00666666684 0
0.01333333364 -0.00666666684 0
0.0 -0.00666666684 0
0.400000004 -0.01999999956 0
0.3866666556 -0.01999999956 0
0.3733333348 -0.01999999956 0
0.3600000144 -0.01999999956 0
0.346666664 -0.01999999956 0
0.3333333432 -0.01999999956 0
0.3199999928 -0.01999999956 0
0.3066666724 -0.01999999956 0
0.293333322 -0.01999999956 0
0.2800000012 -0.01999999956 0
0.2666666804 -0.01999999956 0
0.25333333 -0.01999999956 0
0.2399999948 -0.01999999956 0
0.226666674 -0.01999999956 0
0.2133333384 -0.01999999956 0
0.2000000028 -0.01999999956 0
0.1866666676 -0.01999999956 0
0.173333332 -0.01999999956 0
0.1599999964 -0.01999999956 0
0.1466666608 -0.01999999956 0
0.1333333404 -0.01999999956 0
0.1199999972 -0.01999999956 0
0.1066666692 -0.01999999956 0
0.0933333336 -0.01999999956 0
0.0799999984 -0.01999999956 0
0.06666667 -0.01999999956 0
0.0533333348 -0.01999999956 0
0.03999999912 -0.01999999956 0
0.02666666732 -0.01999999956 0
0.01333333364 -0.01999999956 0
0.0 -0.01999999956 0
0.400000004 -0.03333333508 0
0.3866666556 -0.03333333508 0
0.3733333348 -0.03333333508 0
0.3600000144 -0.03333333508 0
0.346666664 -0.03333333508 0
0.3333333432 -0.03333333508 0
0.3199999928 -0.03333333508 0
0.3066666724 -0.03333333508 0
0.293333322 -0.03333333508 0
0.2800000012 -0.03333333508 0
0.2666666804 -0.03333333508 0
0.25333333 -0.03333333508 0
0.2399999948 -0.03333333508 0
0.226666674 -0.03333333508 0
0.2133333384 -0.03333333508 0
0.2000000028 -0.03333333508 0
0.1866666676 -0.03333333508 0
0.173333332 -0.03333333508 0
0.1599999964 -0.03333333508 0
0.1466666608 -0.03333333508 0
0.1333333404 -0.03333333508 0
0.1199999972 -0.03333333508 0
0.1066666692 -0.03333333508 0
0.0933333336 -0.03333333508 0
0.0799999984 -0.03333333508 0
0.06666667 -0.03333333508 0
0.0533333348 -0.03333333508 0
0.03999999912 -0.03333333508 0
0.02666666732 -0.03333333508 0
0.01333333364 -0.03333333508 0
0.0 -0.03333333508 0
0.400000004 -0.0466666668 0
0.3866666556 -0.0466666668 0
0.3733333348 -0.0466666668 0
0.3600000144 -0.0466666668 0
0.346666664 -0.0466666668 0
0.3333333432 -0.0466666668 0
0.3199999928 -0.0466666668 0
0.3066666724 -0.0466666668 0
0.293333322 -0.0466666668 0
0.2800000012 -0.0466666668 0
0.2666666804 -0.0466666668 0
0.25333333 -0.0466666668 0
0.2399999948 -0.0466666668 0
0.226666674 -0.0466666668 0
0.2133333384 -0.0466666668 0
0.2000000028 -0.0466666668 0
0.1866666676 -0.0466666668 0
0.173333332 -0.0466666668 0
0.1599999964 -0.0466666668 0
0.1466666608 -0.0466666668 0
0.1333333404 -0.0466666668 0
0.1199999972 -0.0466666668 0
0.1066666692 -0.0466666668 0
0.0933333336 -0.0466666668 0
0.0799999984 -0.0466666668 0
0.06666667 -0.0466666668 0
0.0533333348 -0.0466666668 0
0.03999999912 -0.0466666668 0
0.02666666732 -0.0466666668 0
0.01333333364 -0.0466666668 0
0.0 -0.0466666668 0
0.400000004 -0.0599999988 0
0.3866666556 -0.0599999988 0
0.3733333348 -0.0599999988 0
0.3600000144 -0.0599999988 0
0.346666664 -0.0599999988 0
0.3333333432 -0.0599999988 0
0.3199999928 -0.0599999988 0
0.3066666724 -0.0599999988 0
0.293333322 -0.0599999988 0
0.2800000012 -0.0599999988 0
0.2666666804 -0.0599999988 0
0.25333333 -0.0599999988 0
0.2399999948 -0.0599999988 0
0.226666674 -0.0599999988 0
0.2133333384 -0.0599999988 0
0.2000000028 -0.0599999988 0
0.1866666676 -0.0599999988 0
0.173333332 -0.0599999988 0
0.1599999964 -0.0599999988 0
0.1466666608 -0.0599999988 0
0.1333333404 -0.0599999988 0
0.1199999972 -0.0599999988 0
0.1066666692 -0.0599999988 0
0.0933333336 -0.0599999988 0
0.0799999984 -0.0599999988 0
0.06666667 -0.0599999988 0
0.0533333348 -0.0599999988 0
0.03999999912 -0.0599999988 0
0.02666666732 -0.0599999988 0
0.01333333364 -0.0599999988 0
0.0 -0.0599999988 0
0.400000004 -0.0733333304 0
0.3866666556 -0.0733333304 0
0.3733333348 -0.0733333304 0
0.3600000144 -0.0733333304 0
0.346666664 -0.0733333304 0
0.3333333432 -0.0733333304 0
0.3199999928 -0.0733333304 0
0.3066666724 -0.0733333304 0
0.293333322 -0.0733333304 0
0.2800000012 -0.0733333304 0
0.2666666804 -0.0733333304 0
0.25333333 -0.0733333304 0
0.2399999948 -0.0733333304 0
0.226666674 -0.0733333304 0
0.2133333384 -0.0733333304 0
0.2000000028 -0.0733333304 0
0.1866666676 -0.0733333304 0
0.173333332 -0.0733333304 0
0.1599999964 -0.0733333304 0
0.1466666608 -0.0733333304 0
0.1333333404 -0.0733333304 0
0.1199999972 -0.0733333304 0
0.1066666692 -0.0733333304 0
0.0933333336 -0.0733333304 0
0.0799999984 -0.0733333304 0
0.06666667 -0.0733333304 0
0.0533333348 -0.0733333304 0
0.03999999912 -0.0733333304 0
0.02666666732 -0.0733333304 0
0.01333333364 -0.0733333304 0
0.0 -0.0733333304 0
0.400000004 -0.086666666 0
0.3866666556 -0.086666666 0
0.3733333348 -0.086666666 0
0.3600000144 -0.086666666 0
0.346666664 -0.086666666 0
0.3333333432 -0.086666666 0
0.3199999928 -0.086666666 0
0.3066666724 -0.086666666 0
0.293333322 -0.086666666 0
0.2800000012 -0.086666666 0
0.2666666804 -0.086666666 0
0.25333333 -0.086666666 0
0.2399999948 -0.086666666 0
0.226666674 -0.086666666 0
0.2133333384 -0.086666666 0
0.2000000028 -0.086666666 0
0.1866666676 -0.086666666 0
0.173333332 -0.086666666 0
0.1599999964 -0.086666666 0
0.1466666608 -0.086666666 0
0.1333333404 -0.086666666 0
0.1199999972 -0.086666666 0
0.1066666692 -0.086666666 0
0.0933333336 -0.086666666 0
0.0799999984 -0.086666666 0
0.06666667 -0.086666666 0
0.0533333348 -0.086666666 0
0.03999999912 -0.086666666 0
0.02666666732 -0.086666666 0
0.01333333364 -0.086666666 0
0.0 -0.086666666 0
0.400000004 -0.1000000016 0
0.3866666556 -0.1000000016 0
0.3733333348 -0.1000000016 0
0.3600000144 -0.1000000016 0
0.346666664 -0.1000000016 0
0.3333333432 -0.1000000016 0
0.3199999928 -0.1000000016 0
0.3066666724 -0.1000000016 0
0.293333322 -0.1000000016 0
0.2800000012 -0.1000000016 0
0.2666666804 -0.1000000016 0
0.25333333 -0.1000000016 0
0.2399999948 -0.1000000016 0
0.226666674 -0.1000000016 0
0.2133333384 -0.1000000016 0
0.2000000028 -0.1000000016 0
0.1866666676 -0.1000000016 0
0.173333332 -0.1000000016 0
0.1599999964 -0.1000000016 0
0.1466666608 -0.1000000016 0
0.1333333404 -0.1000000016 0
0.1199999972 -0.1000000016 0
0.1066666692 -0.1000000016 0
0.0933333336 -0.1000000016 0
0.0799999984 -0.1000000016 0
0.06666667 -0.1000000016 0
0.0533333348 -0.1000000016 0
0.03999999912 -0.1000000016 0
0.02666666732 -0.1000000016 0
0.01333333364 -0.1000000016 0
0.0 -0.1000000016 0
0.400000004 -0.1133333372 0
0.3866666556 -0.1133333372 0
0.3733333348 -0.1133333372 0
0.3600000144 -0.1133333372 0
0.346666664 -0.1133333372 0
0.3333333432 -0.1133333372 0
0.3199999928 -0.1133333372 0
0.3066666724 -0.1133333372 0
0.293333322 -0.1133333372 0
0.2800000012 -0.1133333372 0
0.2666666804 -0.1133333372 0
0.25333333 -0.1133333372 0
0.2399999948 -0.1133333372 0
0.226666674 -0.1133333372 0
0.2133333384 -0.1133333372 0
0.2000000028 -0.1133333372 0
0.1866666676 -0.1133333372 0
0.173333332 -0.1133333372 0
0.1599999964 -0.1133333372 0
0.1466666608 -0.1133333372 0
0.1333333404 -0.1133333372 0
0.1199999972 -0.1133333372 0
0.1066666692 -0.1133333372 0
0.0933333336 -0.1133333372 0
0.0799999984 -0.1133333372 0
0.06666667 -0.1133333372 0
0.0533333348 -0.1133333372 0
0.03999999912 -0.1133333372 0
0.02666666732 -0.1133333372 0
0.01333333364 -0.1133333372 0
0.0 -0.1133333372 0
0.400000004 -0.1266666652 0
0.3866666556 -0.1266666652 0
0.3733333348 -0.1266666652 0
[...]
POINT_DATA 961
SCALARS Temp float 1
LOOKUP_TABLE default
0.6856098004638482
0.7129932605976922
0.7326445991989088
0.746933040996183
0.7574022903540636
0.7651108998823917
0.7708124931501001
0.7750494995731018
0.7782167213666088
0.7806034348941778
0.782424113860821
0.783839732854287
0.7849733104715899
0.7859220059786501
0.7867661450961432
0.787576379998495
0.7884202458461476
0.7893681879325474
0.7904998935346337
0.7919115356711832
0.7937245949310974
0.7960974738521036
0.7992403017952503
0.8034359701553706
0.8090683725621911
0.8166624827645785
0.8269414539112968
0.8409101536180132
0.859982404567181
0.8862100729920928
0.9228479351406784
0.7236481865204876
0.7504996017941488
0.7699398692438274
0.7841500963023292
0.7945833928667612
0.8022772411954151
0.8079743842374753
0.8122120729683221
0.8153824037068269
0.8177732448834392
0.8195983473656238
0.8210183457365869
0.8221561383356282
0.8231088819084607
0.8239569650905401
0.8247711414879609
0.8256190617401091
0.826571286009855
0.8277075985170149
0.8291242258745076
0.8309426186374974
0.8333209885960969
0.8364689970958288
0.8406685553792154
0.8463016592252534
0.8538896669262899
0.8641487843516311
0.8780695185449401
0.8970357929462488
0.9229960532781607
0.9587724690257124
2.504570030273798
2.508559203024592
2.519677133257716
2.52993114638359
2.5384103116216803
2.5451564874155914
2.550438456667029
2.5545463820048027
2.5577376406972068
2.560225847967245
2.562183828271519
2.563750538175539
2.5650385692160182
2.5661411652345834
2.5671384674030975
2.568103098203382
2.5691053546640386
2.5702183015448714
2.571523039672191
2.5731144768180414
2.5751079233704797
2.57764673118507
2.580911107394269
2.5851277567402264
2.590578846946438
2.5976057004173567
2.60659399461571
2.617901100609237
2.631582080078333
2.646412138356137
2.651736289303216
4.263297159334875
4.265474079438406
4.2708170485505015
4.277493219246291
4.28382311550576
4.2893108395803745
4.29387581582688
4.297594858826036
4.300595007351971
4.303010148468667
4.304964479983993
4.3065675689606655
4.3079145612367435
4.309088607259557
4.310164149141025
4.3112105253365005
4.312295702825988
4.313490081870909
4.314870403893297
4.316523772873023
4.318551704614133
4.321073921759028
4.324231063586398
4.3281846189344035
4.333110049375442
4.339174405741133
4.34647831425172
4.354912606923935
4.363813365204967
4.370938747286772
4.373841867872832
6.01683006069465
6.017988537411355
6.021119395716145
6.0253584173079195
6.029872522716477
6.034113846741979
6.037856896608784
6.041048432380172
6.0437191470789
6.045935809902178
6.047777125539601
6.049322250831635
6.050646106312852
6.051818297600668
6.052903904517538
6.0539652489762386
6.055064167532331
6.056264496004194
6.057634577095393
6.0592495696272675
6.061193200958493
6.063558325984808
6.0664450279889675
6.0699540509018295
6.0741712077498295
6.079134876152212
6.084772013194156
6.090779964412163
6.096426314439331
6.100598331499086
6.102142342397038
7.767228804861175
7.767934338806497
7.769886515265976
7.772681430345479
7.775851617096893
7.779024175112295
7.7819713973592375
7.784590542430755
7.786857871949995
7.788793961203135
7.790441725134911
7.791853651004299
7.793085022419052
7.794190835264539
7.795224887503027
7.796240133986361
7.797289735209781
7.798428387666501
7.799713618443354
7.801206690719
7.8029726297911
7.8050786235387895
7.807589527687906
7.8105585629807655
7.814010045512469
7.817909816276217
7.822118848419816
7.8263317238081
7.830049659120396
7.832648014941874
7.833587318472111
9.515517768062765
9.515967043598812
9.51723364127078
9.519105946162433
9.521319426439575
9.523632473019683
9.525869866685298
9.527928905094369
9.529765241089292
9.531373825956624
9.532773422122668
9.533995878658052
9.535079474151004
9.536065212166726
9.536995066434322
9.537911457130846
9.538857435502688
9.53987715340988
9.541016264512082
9.542321870755039
9.543841520698592
9.545620588719924
9.547697038195167
9.550092334383631
9.552796945826405
9.555749480004538
9.558811179301777
9.561746870885422
9.564233147966595
9.565916299805295
9.566513525991901
11.26214854983364
11.262437842904967
11.263262438458323
11.264506847610901
11.266018531583553
11.267646753517724
11.269269900756802
11.270806148726892
11.272211208644045
11.273469972264841
11.274587370695064
11.275580855475324
11.27647508784035
11.277298590926856
11.27808186067056
11.27885647144009
11.27965477985766
11.280509868591194
11.281455414102927
11.282525136335995
11.283751420732644
11.28516261202542
11.286778336970608
11.288602271466118
11.290611967898199
11.292746510222642
11.294895308843188
11.296894981170608
11.298543575773884
11.299636972267947
11.300020726232656
13.007345469545914
13.007523920510874
13.008036293901649
13.008820172297643
13.009790268902293
13.0108579494628
13.01194685790944
13.01300111829872
13.013986638976915
13.014888036522501
13.015703982539884
13.01644269816152
13.01711840384077
13.017748864834566
13.01835385399554
13.018954286571642
13.019571775707178
13.020228356085534
13.020946143725272
13.021746682475495
13.022649694048452
13.0236709196267
13.024818711567239
13.026089204361524
13.027460211332382
13.028884917618685
13.0302877388264
13.031565983788731
13.032600792574788
13.033277945295879
13.033513910124814
14.751217853812603
14.751311043489611
14.75158008942279
14.751996101034107
14.752518746660195
14.753104761177003
14.753715265144445
14.754320200575876
14.75489974025223
14.755443468777475
14.755948498092298
14.756417370397482
14.756856252776267
14.757273595062092
14.757679219905004
14.75808374972719
14.758498252311291
14.758933972408792
14.759402024926066
14.759912916166595
14.76047574814119
14.76109696133573
14.76177848060761
14.762515265057672
14.763292465275033
14.764082858579325
14.7648457394402
14.765528758732941
14.766073839794194
14.766426922045344
14.76654931206719
16.49381812890446
16.493837618504955
16.4938948832536
16.493986532659513
16.494107583042577
16.49425224324608
16.494414690423955
16.494589670696364
16.49477286578441
16.4949610268417
16.49515194647806
16.495344328240915
16.49553761400594
16.49573180794185
16.495927309729232
16.496124762491355
16.49632491435562
16.496528482453584
16.49673601037243
16.496947708804708
16.497163271102096
16.497381662812444
16.497600888361415
16.497817767262216
16.498027760873615
16.498224931514656
16.49840212450959
16.49855145192867
16.49866509681671
16.498736344929874
16.49876063399919
16.591044889350282
16.591060942558954
16.591108286861132
16.591184605530373
16.59128643157066
16.591409627981555
16.59154988844939
16.59170315712387
16.59186592240777
16.592035365416038
16.592209395248695
16.592386597704134
16.592566135640528
16.59274762995669
16.59293103295353
16.593116502409966
16.59330427995755
16.5934945681495
16.593687402784273
16.593882516108117
16.59407918869256
16.594276094589624
16.594471146913186
16.594661373496226
16.59484285149011
16.595010753131834
16.595159548291175
16.595283392807044
16.59537669169126
16.595434764792454
16.595454488641863
16.688171310306622
16.688184789813064
16.68822465902219
16.68828928844941
16.68837620403921
16.688482389522004
16.688604615391917
16.68873973123469
16.688884890560463
16.689037685126372
16.68919620311312
16.68935902006201
16.68952514557247
16.68969394584839
16.689865050797934
16.690038254093913
16.690213411901983
16.690390338188074
16.690568696868944
16.69074789030857
16.690926945507915
16.691104404831435
16.69127822861403
16.691445733774728
16.691603586152024
16.691747878476143
16.69187431473682
16.691978507930607
16.692056373489052
16.692104566653594
16.692120887103986
16.785202269921495
16.7852137733014
16.78524787483089
16.78530339794318
16.78537853471003
16.785471041178422
16.785578457373784
16.785698311476224
16.785828288242712
16.7859663406474
16.78611075138343
16.786260144204988
16.786413458596233
16.786569901181213
16.786728879415662
16.786889924860112
16.78705261231247
16.787216474647547
16.787380915765787
16.787545123368737
16.787707984615043
16.787868011823868
16.78802328419157
16.78817142409581
16.788309617438642
16.78843469716256
16.788543297746713
16.788632078760486
16.788698000862862
16.788738618433833
16.78875234155132
16.882141435877756
16.88215138922663
16.882180948462718
16.882229243008453
16.88229492141998
16.882376280473178
16.882471414782152
16.882578360275538
16.882695219213566
16.882820249097
16.88295191901853
16.88308892933055
16.88323020246963
16.88337485379316
16.883522145422212
16.88367142898292
16.883822083269955
16.883973447556837
16.884124753948967
16.884275061517528
16.884423195801602
16.884567700224935
16.88470680364162
16.88483841799903
16.88496017008116
16.885069478813115
16.88516367956375
16.885240190553542
16.885296707950022
16.88533140508638
16.885343106143626
16.978991588741987
16.979000304018637
16.979026223004986
16.979068686295932
16.9791266611554
16.97919882854202
16.979283686484617
16.979379651678492
16.979485152074446
16.979598696087677
16.97971892092416
16.979844614306987
16.97997471421236
16.980108292517954
16.980244523742172
16.98038264345268
16.98052190174768
16.980661512774336
16.98080060393289
16.980938167765203
16.981073019992426
16.981203769273957
16.981328801308834
16.981446287804573
16.98155422089348
16.981650480038283
16.98173292997491
16.981799544363497
16.98184854498884
16.981878539634977
16.981888639699925
17.07265125710582
17.072658966603566
17.072681920043085
17.072719606589025
17.072771219905096
17.07283571786997
17.072911895071048
17.072998455349378
17.07309408050348
17.073197483527387
17.07330744866391
17.073422852210708
17.073542666891925
17.073665953844003
17.073791842194723
17.0739194997262
17.07404809929735
17.07417678188837
17.07430461974423
17.074430582449434
17.074553508964705
17.074672090181593
17.074784863353777
17.074890226428963
17.07498647091014
17.075071837769258
17.075144593843493
17.0752031239197
17.07524603106713
17.075272233541767
17.075281045966584
17.159996422327506
17.160003302500968
17.160023804900423
17.160057525071466
17.16010382012277
17.160161850354577
17.160230630815228
17.160309083556438
17.160396088857038
17.160490525968928
17.16059130574709
17.160697389329776
17.16080779470759
17.160921594083067
17.16103790125455
17.161155851666443
17.161274579093675
17.161393189570656
17.16151073566341
17.161626193548592
17.16173844539332
17.161846270674932
17.16194834687427
17.162043265796413
17.162129563109676
17.16220576421711
17.162270443633723
17.162322293888938
17.162360198610816
17.162383301628598
17.16239106398166
17.24099643681668
17.241002625910493
17.24102108182811
17.241051477457052
17.241093289581467
17.241145828328964
17.24120827434667
17.241279716794377
17.241359191812926
17.241445713708146
17.241538301359437
17.24163599447592
17.241737861024003
17.24184299801989
17.24195052448667
17.24205956857519
17.242169252187217
17.242278673418042
17.242386889468214
17.24249290205784
17.242595647308384
17.242693992963396
17.24278674273998
17.242872652818505
17.242950457577898
17.24301890691019
17.24307681241723
17.243123099316215
17.243156860266698
17.24317740534162
17.243184302711715
17.31562282066493
17.31562842937123
17.31564516378908
17.315672753817015
17.315710765009264
17.31575861970068
17.315815624192513
17.315880996658795
17.315953896313207
17.31603344737167
17.31611876044437
17.31620894649621
17.316303124431546
17.31640042405743
17.316499982990855
17.31660093903087
17.316702420800507
17.31680353669775
17.31690336436502
17.317000942292218
17.31709526505109
17.3171852844162
17.31726991573816
17.317348053694992
17.317418594366778
17.317480465534796
17.317532662785833
17.317574288946826
17.317604594193952
17.317623012692437
17.31762919208197
17.383849219046063
17.3838543378976
17.38386961738541
17.3838948299559
17.383929607786037
17.38397345815399
17.384025783616202
17.384085902740843
17.384153072488033
17.384226506765653
17.38430539387192
17.38438890845785
17.384476218928953
17.38456649176035
17.38465889118263
17.384752575405418
17.384846691743732
17.384940370450177
17.385032719066928
17.385122818544012
17.385209722232513
17.385292459526795
17.385370043251488
17.385441484286623
17.385505810391145
17.38556209088268
17.38560946506485
17.385647172493776
17.38567458324289
17.38569122514949
17.38569680551251
17.44565138689076
17.44565609147751
17.445670139183285
17.445693334551855
17.44572536027503
17.44576578854469
17.44581409627262
17.445869680698728
17.44593187681464
17.44599997189486
17.446073219877547
17.44615085166828
17.446232082215737
17.446316115649246
17.446402146901953
17.446489360725664
17.446576930107025
17.446664013698857
17.446749753746047
17.446833275444362
17.4469136885302
17.446990092506084
17.447061584435477
17.4471272723396
17.44718629126035
17.44723782350558
17.44728112125907
17.447315530091394
17.447340512113048
17.447355666539323
17.447360745909382
17.501007560997046
17.501011915705377
17.501024922136807
17.501046409259192
17.501076098381237
17.501113611675553
17.501158483868974
17.501210174175586
17.501268080096807
17.50133154896956
17.501399889998464
17.50147238322225
17.501548286224875
17.501626839754316
17.50170727068243
17.501788793018914
17.50187060870491
17.50195190765792
17.50203186827168
17.502109659063528
17.502184442025726
17.502255378805096
17.502321638555436
17.502382410152702
17.502436915980073
17.502484428709124
17.502524289513723
17.502555926592052
17.502578873154523
17.50259278319802
17.50259744383426
17.54989777910708
17.549901839850047
17.54991397077114
17.549934019530326
17.54996173711428
17.54999678435706
17.550038741105784
17.550087115512724
17.550141355185897
17.55020085653512
17.55026497501754
17.55033303304722
17.550404326355434
17.550478129873397
17.550553701602254
17.550630285040956
17.550707111673375
17.5507834028818
17.550858372272273
17.550931228911278
17.55100118184735
17.551067446831176
17.55112925403593
17.55118585921008
17.55123655561995
17.551280688148097
17.551317668193366
17.551346988505752
17.551368237408447
17.55138111111821
17.551385423290835
17.59230481580104
17.592308632039
17.59232003433065
17.592338884662755
17.592364956854457
17.592397941656653
17.592437454108826
17.592483040933388
17.592534189752676
17.59259033681706
17.592650875902386
17.59271516539768
17.592782534352775
17.59285228848933
17.59292371468057
17.592996084365566
17.59306865722401
17.593140684405462
17.59321141212812
17.59328008599948
17.59334595629663
17.593408284961853
17.593466353102297
17.593519471228504
17.593566989732714
17.59360831092689
17.59364290145599
17.593670304410583
17.593690150801052
17.593702169381185
17.59370619419548
17.628213331082733
17.628216947356353
17.62822775347521
17.628245622353397
17.628270345282065
17.62830163602186
17.628339136866945
17.62838242468146
17.62843101871291
17.628484387141185
17.62854195496942
17.62860311048309
17.62866721103282
17.62873358909234
17.628801557138836
17.628870411744305
17.628939438069075
17.629007914001754
17.62907511463032
17.629140317287586
17.62920280730852
17.629261885139485
17.629316873590682
17.629367127316623
17.629412042151298
17.629451065583012
17.629483707316012
17.629509549384885
17.62952825563063
17.629539579723343
17.629543371276498
17.657610585082267
17.657614042194417
17.657624373620152
17.65764146048354
17.657665107239538
17.657695045059867
17.657730936982386
17.657772382986867
17.657818926802822
17.657870061611405
17.657925237197794
17.657983865939936
17.65804532837712
17.658108979269816
17.65817415273661
17.658240166801285
17.65830632843859
17.658371938331335
17.65843629592632
17.658498704952564
17.65855847946795
17.658614950990316
17.658667475514925
17.658715442389312
17.658758282778212
17.65879547897434
17.658826573603175
17.65885117828991
17.65886898169965
17.65887975627452
17.658883363329778
17.680486096461536
17.68048943241736
17.680499402401733
17.680515893508893
17.68053871978831
17.680567625146164
17.68060228786399
17.680642325012133
17.680687298556528
17.680736720469522
17.680790059357484
17.68084674610995
17.680906179303875
17.680967731245023
17.681030753263734
17.681094580559314
17.681158537607335
17.68122194332207
17.681284116492474
17.681344381598933
17.681402075027588
17.681456552178904
17.6815071942857
17.68155341682808
17.68159467736084
17.68163048398672
17.68166040359719
17.681684069520607
17.68170118855835
17.681711546827493
17.681715014151507
17.696831568775778
17.696834819552784
17.6968445353774
17.69686060740108
17.69688285620462
17.696911034386204
17.696944830668993
17.69698387388386
17.697027738615795
17.697075949926695
17.697127989633053
17.69718330172634
17.697241297661495
17.69730136237507
17.697362859674264
17.697425137264872
17.69748753238217
17.69754937720509
17.697610004525885
17.697668753745102
17.697724977177263
17.69777804712404
17.6978273625422
17.697872357136585
17.6979125067529
17.69794733728731
17.697976432284822
17.69799943991339
17.698016079338824
17.69802614598079
17.698029515442276
17.706641217641163
17.706644417841297
17.70665398273416
17.706669805826735
17.706691711496237
17.706719457402134
17.706752738362255
17.706791190092787
17.70683439459417
17.706881884653807
17.70693314992361
17.706987642208297
17.707044780685248
17.70710395790491
17.707164545228064
17.70722589795293
17.70728736106683
17.707348274797
17.70740798040576
17.707465826279385
17.707521174277456
17.707573406777893
17.707621933251975
17.707666198166987
17.707705688126374
17.7077399394545
17.707768545427296
17.707791162862403
17.707807518118457
17.707817412018954
17.707820723520907
17.70991148151886
17.709914664947153
17.709924179786405
17.70993992031602
17.709961712158908
17.709989314636722
17.710022424571207
17.710060679945993
17.710103665207924
17.710150915698648
17.710201923667114
17.710256143514453
17.710312996991217
17.71037187919137
17.710432164004256
17.71049320927295
17.710554362584094
17.71061496686187
17.710674366202657
17.710731911992966
17.71078696927176
17.710838923764733
17.710887188428234
17.710931211288635
17.71097048249981
17.711004541821765
17.711032985731535
17.711055473888692
17.711071735012826
17.711081571699882
17.71108486400646
