# vtk DataFile Version 2.0
Unstructured Grid Example
ASCII
DATASET UNSTRUCTURED_GRID

POINTS 961 float
0.400000004 0.01999999956 0
0.3866666556 0.01999999956 0
0.3733333348 0.01999999956 0
0.3600000144 0.01999999956 0
0.346666664 0.01999999956 0
0.3333333432 0.01999999956 0
0.3199999928 0.01999999956 0
0.3066666724 0.01999999956 0
0.293333322 0.01999999956 0
0.2800000012 0.01999999956 0
0.2666666804 0.01999999956 0
0.25333333 0.01999999956 0
0.2399999948 0.01999999956 0
0.226666674 0.01999999956 0
0.2133333384 0.01999999956 0
0.2000000028 0.01999999956 0
0.1866666676 0.01999999956 0
0.173333332 0.01999999956 0
0.1599999964 0.01999999956 0
0.1466666608 0.01999999956 0
0.1333333404 0.01999999956 0
0.1199999972 0.01999999956 0
0.1066666692 0.01999999956 0
0.0933333336 0.01999999956 0
0.0799999984 0.01999999956 0
0.06666667 0.01999999956 0
0.0533333348 0.01999999956 0
0.03999999912 0.01999999956 0
0.02666666732 0.01999999956 0
0.01333333364 0.01999999956 0
0.0 0.01999999956 0
0.400000004 0.00666666684 0
0.3866666556 0.00666666684 0
0.3733333348 0.00666666684 0
0.3600000144 0.00666666684 0
0.346666664 0.00666666684 0
0.3333333432 0.00666666684 0
0.3199999928 0.00666666684 0
0.3066666724 0.00666666684 0
0.293333322 0.00666666684 0
0.2800000012 0.00666666684 0
0.2666666804 0.00666666684 0
0.25333333 0.00666666684 0
0.2399999948 0.00666666684 0
0.226666674 0.00666666684 0
0.2133333384 0.00666666684 0
0.2000000028 0.00666666684 0
0.1866666676 0.00666666684 0
0.173333332 0.00666666684 0
0.1599999964 0.00666666684 0
0.1466666608 0.00666666684 0
0.1333333404 0.00666666684 0
0.1199999972 0.00666666684 0
0.1066666692 0.00666666684 0
0.0933333336 0.00666666684 0
0.0799999984 0.00666666684 0
0.06666667 0.00666666684 0
0.0533333348 0.00666666684 0
0.03999999912 0.00666666684 0
0.02666666732 0.00666666684 0
0.01333333364 0.00666666684 0
0.0 0.00666666684 0
0.400000004 -0.00666666684 0
0.3866666556 -0.00666666684 0
0.3733333348 -0.00666666684 0
0.3600000144 -0.00666666684 0
0.346666664 -0.00666666684 0
0.3333333432 -0.00666666684 0
0.3199999928 -0.00666666684 0
0.3066666724 -0.00666666684 0
0.293333322 -0.00666666684 0
0.2800000012 -0.00666666684 0
0.2666666804 -0.00666666684 0
0.25333333 -0.00666666684 0
0.2399999948 -0.00666666684 0
0.226666674 -0.00666666684 0
0.2133333384 -0.00666666684 0
0.2000000028 -0.00666666684 0
0.1866666676 -0.00666666684 0
0.173333332 -0.00666666684 0
0.1599999964 -0.00666666684 0
0.1466666608 -0.00666666684 0
0.1333333404 -0.00666666684 0
0.1199999972 -0.00666666684 0
0.1066666692 -0.00666666684 0
0.0933333336 -0.00666666684 0
0.0799999984 -0.00666666684 0
0.06666667 -0.00666666684 0
0.0533333348 -0.00666666684 0
0.03999999912 -0.00666666684 0
0.02666666732 -0.00666666684 0
0.01333333364 -0.00666666684 0
0.0 -0.00666666684 0
0.400000004 -0.01999999956 0
0.3866666556 -0.01999999956 0
0.3733333348 -0.01999999956 0
0.3600000144 -0.01999999956 0
0.346666664 -0.01999999956 0
0.3333333432 -0.01999999956 0
0.3199999928 -0.01999999956 0
0.3066666724 -0.01999999956 0
0.293333322 -0.01999999956 0
0.2800000012 -0.01999999956 0
0.2666666804 -0.01999999956 0
0.25333333 -0.01999999956 0
0.2399999948 -0.01999999956 0
0.226666674 -0.01999999956 0
0.2133333384 -0.01999999956 0
0.2000000028 -0.01999999956 0
0.1866666676 -0.01999999956 0
0.173333332 -0.01999999956 0
0.1599999964 -0.01999999956 0
0.1466666608 -0.01999999956 0
0.1333333404 -0.01999999956 0
0.1199999972 -0.01999999956 0
0.1066666692 -0.01999999956 0
0.0933333336 -0.01999999956 0
0.0799999984 -0.01999999956 0
0.06666667 -0.01999999956 0
0.0533333348 -0.01999999956 0
0.03999999912 -0.01999999956 0
0.02666666732 -0.01999999956 0
0.01333333364 -0.01999999956 0
0.0 -0.01999999956 0
0.400000004 -0.03333333508 0
0.3866666556 -0.03333333508 0
0.3733333348 -0.03333333508 0
0.3600000144 -0.03333333508 0
0.346666664 -0.03333333508 0
0.3333333432 -0.03333333508 0
0.3199999928 -0.03333333508 0
0.3066666724 -0.03333333508 0
0.293333322 -0.03333333508 0
0.2800000012 -0.03333333508 0
0.2666666804 -0.03333333508 0
0.25333333 -0.03333333508 0
0.2399999948 -0.03333333508 0
0.226666674 -0.03333333508 0
0.2133333384 -0.03333333508 0
0.2000000028 -0.03333333508 0
0.1866666676 -0.03333333508 0
0.173333332 -0.03333333508 0
0.1599999964 -0.03333333508 0
0.1466666608 -0.03333333508 0
0.1333333404 -0.03333333508 0
0.1199999972 -0.03333333508 0
0.1066666692 -0.03333333508 0
0.0933333336 -0.03333333508 0
0.0799999984 -0.03333333508 0
0.06666667 -0.03333333508 0
0.0533333348 -0.03333333508 0
0.03999999912 -0.03333333508 0
0.02666666732 -0.03333333508 0
0.01333333364 -0.03333333508 0
0.0 -0.03333333508 0
0.400000004 -0.0466666668 0
0.3866666556 -0.0466666668 0
0.3733333348 -0.0466666668 0
0.3600000144 -0.0466666668 0
0.346666664 -0.0466666668 0
0.3333333432 -0.0466666668 0
0.3199999928 -0.0466666668 0
0.3066666724 -0.0466666668 0
0.293333322 -0.0466666668 0
0.2800000012 -0.0466666668 0
0.2666666804 -0.0466666668 0
0.25333333 -0.0466666668 0
0.2399999948 -0.0466666668 0
0.226666674 -0.0466666668 0
0.2133333384 -0.0466666668 0
0.2000000028 -0.0466666668 0
0.1866666676 -0.0466666668 0
0.173333332 -0.0466666668 0
0.1599999964 -0.0466666668 0
0.1466666608 -0.0466666668 0
0.1333333404 -0.0466666668 0
0.1199999972 -0.0466666668 0
0.1066666692 -0.0466666668 0
0.0933333336 -0.0466666668 0
0.0799999984 -0.0466666668 0
0.06666667 -0.0466666668 0
0.0533333348 -0.0466666668 0
0.03999999912 -0.0466666668 0
0.02666666732 -0.0466666668 0
0.01333333364 -0.0466666668 0
0.0 -0.0466666668 0
0.400000004 -0.0599999988 0
0.3866666556 -0.0599999988 0
0.3733333348 -0.0599999988 0
0.3600000144 -0.0599999988 0
0.346666664 -0.0599999988 0
0.3333333432 -0.0599999988 0
0.3199999928 -0.0599999988 0
0.3066666724 -0.0599999988 0
0.293333322 -0.0599999988 0
0.2800000012 -0.0599999988 0
0.2666666804 -0.0599999988 0
0.25333333 -0.0599999988 0
0.2399999948 -0.0599999988 0
0.226666674 -0.0599999988 0
0.2133333384 -0.0599999988 0
0.2000000028 -0.0599999988 0
0.1866666676 -0.0599999988 0
0.173333332 -0.0599999988 0
0.1599999964 -0.0599999988 0
0.1466666608 -0.0599999988 0
0.1333333404 -0.0599999988 0
0.1199999972 -0.0599999988 0
0.1066666692 -0.0599999988 0
0.0933333336 -0.0599999988 0
0.0799999984 -0.0599999988 0
0.06666667 -0.0599999988 0
0.0533333348 -0.0599999988 0
0.03999999912 -0.0599999988 0
0.02666666732 -0.0599999988 0
0.01333333364 -0.0599999988 0
0.0 -0.0599999988 0
0.400000004 -0.0733333304 0
0.3866666556 -0.0733333304 0
0.3733333348 -0.0733333304 0
0.3600000144 -0.0733333304 0
0.346666664 -0.0733333304 0
0.3333333432 -0.0733333304 0
0.3199999928 -0.0733333304 0
0.3066666724 -0.0733333304 0
0.293333322 -0.0733333304 0
0.2800000012 -0.0733333304 0
0.2666666804 -0.0733333304 0
0.25333333 -0.0733333304 0
0.2399999948 -0.0733333304 0
0.226666674 -0.0733333304 0
0.2133333384 -0.0733333304 0
0.2000000028 -0.0733333304 0
0.1866666676 -0.0733333304 0
0.173333332 -0.0733333304 0
0.1599999964 -0.0733333304 0
0.1466666608 -0.0733333304 0
0.1333333404 -0.0733333304 0
0.1199999972 -0.0733333304 0
0.1066666692 -0.0733333304 0
0.0933333336 -0.0733333304 0
0.0799999984 -0.0733333304 0
0.06666667 -0.0733333304 0
0.0533333348 -0.0733333304 0
0.03999999912 -0.0733333304 0
0.02666666732 -0.0733333304 0
0.01333333364 -0.0733333304 0
0.0 -0.0733333304 0
0.400000004 -0.086666666 0
0.3866666556 -0.086666666 0
0.3733333348 -0.086666666 0
0.3600000144 -0.086666666 0
0.346666664 -0.086666666 0
0.3333333432 -0.086666666 0
0.3199999928 -0.086666666 0
0.3066666724 -0.086666666 0
0.293333322 -0.086666666 0
0.2800000012 -0.086666666 0
0.2666666804 -0.086666666 0
0.25333333 -0.086666666 0
0.2399999948 -0.086666666 0
0.226666674 -0.086666666 0
0.2133333384 -0.086666666 0
0.2000000028 -0.086666666 0
0.1866666676 -0.086666666 0
0.173333332 -0.086666666 0
0.1599999964 -0.086666666 0
0.1466666608 -0.086666666 0
0.1333333404 -0.086666666 0
0.1199999972 -0.086666666 0
0.1066666692 -0.086666666 0
0.0933333336 -0.086666666 0
0.0799999984 -0.086666666 0
0.06666667 -0.086666666 0
0.0533333348 -0.086666666 0
0.03999999912 -0.086666666 0
0.02666666732 -0.086666666 0
0.01333333364 -0.086666666 0
0.0 -0.086666666 0
0.400000004 -0.1000000016 0
0.3866666556 -0.1000000016 0
0.3733333348 -0.1000000016 0
0.3600000144 -0.1000000016 0
0.346666664 -0.1000000016 0
0.3333333432 -0.1000000016 0
0.3199999928 -0.1000000016 0
0.3066666724 -0.1000000016 0
0.293333322 -0.1000000016 0
0.2800000012 -0.1000000016 0
0.2666666804 -0.1000000016 0
0.25333333 -0.1000000016 0
0.2399999948 -0.1000000016 0
0.226666674 -0.1000000016 0
0.2133333384 -0.1000000016 0
0.2000000028 -0.1000000016 0
0.1866666676 -0.1000000016 0
0.173333332 -0.1000000016 0
0.1599999964 -0.1000000016 0
0.1466666608 -0.1000000016 0
0.1333333404 -0.1000000016 0
0.1199999972 -0.1000000016 0
0.1066666692 -0.1000000016 0
0.0933333336 -0.1000000016 0
0.0799999984 -0.1000000016 0
0.06666667 -0.1000000016 0
0.0533333348 -0.1000000016 0
0.03999999912 -0.1000000016 0
0.02666666732 -0.1000000016 0
0.01333333364 -0.1000000016 0
0.0 -0.1000000016 0
0.400000004 -0.1133333372 0
0.3866666556 -0.1133333372 0
0.3733333348 -0.1133333372 0
0.3600000144 -0.1133333372 0
0.346666664 -0.1133333372 0
0.3333333432 -0.1133333372 0
0.3199999928 -0.1133333372 0
0.3066666724 -0.1133333372 0
0.293333322 -0.1133333372 0
0.2800000012 -0.1133333372 0
0.2666666804 -0.1133333372 0
0.25333333 -0.1133333372 0
0.2399999948 -0.1133333372 0
0.226666674 -0.1133333372 0
0.2133333384 -0.1133333372 0
0.2000000028 -0.1133333372 0
0.1866666676 -0.1133333372 0
0.173333332 -0.1133333372 0
0.1599999964 -0.1133333372 0
0.1466666608 -0.1133333372 0
0.1333333404 -0.1133333372 0
0.1199999972 -0.1133333372 0
0.1066666692 -0.1133333372 0
0.0933333336 -0.1133333372 0
0.0799999984 -0.1133333372 0
0.06666667 -0.1133333372 0
0.0533333348 -0.1133333372 0
0.03999999912 -0.1133333372 0
0.02666666732 -0.1133333372 0
0.01333333364 -0.1133333372 0
0.0 -0.1133333372 0
0.400000004 -0.1266666652 0
0.3866666556 -0.1266666652 0
0.3733333348 -0.1266666652 0
[...]
POINT_DATA 961
SCALARS Temp float 1
LOOKUP_TABLE default
0.7286004643511415
0.7577010025845706
0.7785846176715148
0.7937690906630646
0.8048949192628737
0.8130870292191718
0.8191462973227397
0.8236491636426154
0.8270151842532545
0.8295517724270944
0.8314868482603887
0.8329914780186417
0.83419639188462
0.8352048391507094
0.8361021799888922
0.8369634944481346
0.8378605501560399
0.8388682074454415
0.8400711482978136
0.8415715743825984
0.8434985821262919
0.8460205054500589
0.849360649067805
0.8538196428151436
0.8598054527686882
0.8678759723589965
0.8787997022429693
0.8936445236777585
0.9139129181106316
0.9417854213079807
0.9807209132361189
0.7690239047708296
0.7975590361268136
0.8182183469299686
0.8333197038592429
0.844407329603378
0.8525837582989066
0.8586383037939287
0.8631419029300458
0.8665112361261924
0.8690522203401525
0.8709920073985875
0.872501302127886
0.873710706790926
0.8747234678749923
0.8756250122809233
0.8764905277157903
0.877391904391957
0.8784041245791581
0.8796119731462942
0.8811177085856705
0.8830503952782593
0.8855781643124417
0.8889238229198594
0.8933869592077992
0.8993735222846272
0.9074375633034414
0.9183401998891849
0.9331340520934429
0.9532898270392506
0.980878154502909
1.0188981767451541
2.6616116276579094
2.6658509865047
2.677666200772862
2.688563418147535
2.697574584234995
2.7047441774608134
2.710357829433944
2.7147238916195278
2.71811587383072
2.7207607792341975
2.722842261965428
2.7245079841350637
2.7258775892096603
2.7270501594472663
2.7281108526033266
2.7291368361467714
2.730202806248181
2.73138640044344
2.732773796435821
2.7344658449564245
2.736585079133128
2.7392838324550475
2.7427536053513757
2.7472353122446687
2.7530288091475095
2.760496816836555
2.7700491930407285
2.7820657141552245
2.796604889011849
2.812365108559306
2.818023194351701
4.53061272448676
4.532926224472312
4.538604452469041
4.545699630241094
4.5524269662225
4.558259461059743
4.563111478750191
4.567064641388903
4.570253943434978
4.572821655997469
4.5748997524108646
4.576604656990291
4.578037467804818
4.57928653477333
4.580430952986005
4.581544393569947
4.582699070074104
4.583969781977985
4.585438067791783
4.587196478790897
4.589352882358578
4.592034495128329
4.59539076281963
4.599593289061127
4.604828527370358
4.61127399402423
4.619036616077399
4.628000370880833
4.637459697109212
4.6450321579324845
4.648117416407162
6.394093560820544
6.3953247874099315
6.398652287813473
6.403157649477568
6.407955548755966
6.412463758216113
6.416442634982355
6.419835588150166
6.4226752210207065
6.425032473599109
6.426990968357316
6.428634806996559
6.430043588180139
6.431291261510009
6.432446966349579
6.433576910784385
6.434746786922481
6.436024411553376
6.437482391252669
6.439200576651744
6.4412679249650475
6.443783094255072
6.446852425350267
6.45058296241544
6.455065883761128
6.460341959064161
6.466333551757225
6.4727190162144295
6.4787199969534415
6.483153974146948
6.484794921677148
8.254243259452544
8.254993173587627
8.257068178785198
8.26003903973766
8.263408969302876
8.266781673683196
8.2699151539954
8.27270021032236
8.275111597278878
8.277171159637511
8.278924480699839
8.280427314606296
8.2817383857274
8.282916111501876
8.284017635450173
8.285099204523188
8.286217283939152
8.287429971268539
8.288798372517817
8.290387564710059
8.292266623828848
8.294506925256862
8.297177367403371
8.300334485739487
8.30400410032942
8.308149891173963
8.312624096303018
8.317102130309987
8.32105391910435
8.323815642851248
8.324813992470295
10.112150307500826
10.112627927725587
10.113974464089255
10.11596502664316
10.118318486621726
10.120778071740538
10.123157559102415
10.12534778658753
10.127301603428087
10.12901361874285
10.130503743421013
10.131805793439076
10.132960415607041
10.13401115110616
10.135002571000859
10.135979720041183
10.136988313259037
10.138075235339691
10.139288967348365
10.140679530236959
10.142297420717327
10.144190826475183
10.14640006124651
10.148947908174106
10.15182421224668
10.154963707798423
10.158218915331164
10.16133989697449
10.163982951050942
10.165772175190348
10.166407028111113
11.968294501287666
11.968602141929434
11.969479063801629
11.970802529450676
11.972410423844536
11.974142542513166
11.975869627284878
11.977504699048653
11.979000664545044
11.98034143746619
11.981532224448745
11.982591535038688
11.983545538313956
11.984424505618641
11.985260803439491
11.986087943390626
11.98694026794206
11.987852891150503
11.988861558578714
11.990002062929708
11.991308780091872
11.992811793667013
11.994531924760777
11.996473045934895
11.998611270947816
12.000881836008704
12.00316719227616
12.005293691070865
12.007046700309088
12.00820928731089
12.008617315173868
13.822914107219543
13.823103991681197
13.82364922194958
13.824483458708514
13.825516054007622
13.826652797440564
13.827812521829209
13.828935819696882
13.829986429568372
13.83094796733392
13.831818981711105
13.832608166644633
13.833330588924136
13.834005080287044
13.834652604334591
13.835295337589084
13.835956197688839
13.83665855024912
13.837425847874414
13.838280936216492
13.839244726146186
13.840333900537901
13.84155729268407
13.84291075492018
13.844370672977282
13.84588726384966
13.847380175098458
13.84874025220145
13.849841162788216
13.850561510633852
13.850812517366926
15.676125190280608
15.676224505427161
15.67651126482188
15.676954757056027
15.677512106177945
15.67813731294118
15.678789033165774
15.679435291907918
15.680054981553733
15.68063699187198
15.681178207876552
15.681681281732477
15.682152714683038
15.682601431375026
15.683037813465237
15.683473091235813
15.683918967617121
15.684387333603357
15.684889942839487
15.685437903475535
15.686040833193047
15.68670552375358
15.687433971148504
15.688220772406218
15.689050105034378
15.68989300189288
15.690706172445818
15.691433957713997
15.692014617650116
15.692390686049372
15.692521033649763
17.527983349197136
17.52800438350367
17.528066203335065
17.528165195040664
17.528296044974706
17.528452574647215
17.528628565459787
17.528818397311277
17.52901743868454
17.529222189265642
17.529430250800964
17.529640188942835
17.529851350401877
17.530063676579505
17.530277527014093
17.530493518456407
17.530712378505783
17.53093480181417
17.53116129933578
17.531392029715352
17.53162660398373
17.53186386261534
17.532101628186403
17.532336468226163
17.532563511652363
17.53277640586046
17.532967510656498
17.53312841273002
17.533250780662694
17.5333274616353
17.533353596683863
17.631305680703743
17.631323067229616
17.63137435677877
17.631457076662404
17.631567524802467
17.631701280283934
17.631853735748187
17.632020543781135
17.63219792959278
17.63238284918603
17.632573027436372
17.63276690414459
17.63296352874284
17.633162434527517
17.633363504773826
17.63356683960461
17.63377262750358
17.63398101541735
17.634191973819444
17.634405152075015
17.634619721747345
17.634834212770773
17.635046349964476
17.63525292157645
17.635449710330192
17.635631542607324
17.635792504174233
17.63592635327221
17.636027119490098
17.63608981144412
17.636111099068355
17.734520696432476
17.734535355501897
17.734578724038307
17.734649059439437
17.734743714418407
17.734859458495823
17.734992827919417
17.73514043661832
17.73529921561251
17.73546655616782
17.735640372229273
17.735819091357968
17.736001598692695
17.736187155371184
17.736375300515014
17.7365657457283
17.73675826825881
17.736952600499603
17.737148316140818
17.73734471243208
17.73754068996987
17.737734637316915
17.737924328132248
17.738106856635895
17.738278630025285
17.738435451895214
17.73857271865613
17.738685736363365
17.738770139175102
17.738822354432802
17.738840032862168
17.837633565191176
17.83764613547285
17.837683408299725
17.837744122020272
17.837826336636816
17.83792764157258
17.83804538979384
17.838176915094735
17.838319711574805
17.83847155270301
17.838630557305123
17.838795202204203
17.838964295927745
17.839136927827163
17.839312398345875
17.83949013821018
17.839669623300647
17.839850284936322
17.840031418154794
17.840212089801945
17.840391049658322
17.840566652254143
17.840736795583187
17.84089889664524
17.84104991364575
17.841186435326023
17.841304845653106
17.84140156181615
17.841473327903312
17.841517526170676
17.841532455652306
17.940648162270517
17.940659100321884
17.940691590853184
17.940744696899532
17.940816962761584
17.94090655137542
17.94101140365035
17.94112939126069
17.941258450017703
17.941396674794994
17.94154238006967
17.9416941214359
17.94185068650775
17.94201106471619
17.942174399023752
17.942339925835995
17.942506909601025
17.942674572756893
17.94284202466721
17.943008192442875
17.943171757443142
17.94333110445014
17.943484287860027
17.943629029955392
17.943762755245398
17.943882673220077
17.943985910975144
17.94406969049734
17.944131536379746
17.944169487832262
17.944182283468514
18.043567412828132
18.043577054075076
18.04360573259151
18.043652735209378
18.0437169439008
18.043796928459972
18.04389105671584
18.043997602834242
18.044114846255205
18.044241145705982
18.044374991248056
18.044515028010323
18.04466005659632
18.044809016537524
18.044960953878597
18.045114977778205
18.045270211962624
18.04542574194048
18.04558056188965
18.045733524389938
18.045883296663924
18.046028329286248
18.04616684000463
18.046296824067127
18.046416091434764
18.046522338516734
18.046613252809998
18.046686644769718
18.046740596144648
18.046773606812273
18.046784719993433
18.143094115632522
18.143102708383317
18.143128296226212
18.143170323214527
18.143227910817462
18.143299921590383
18.143385036588114
18.143481832811908
18.1435888567926
18.143704681655983
18.143827950414824
18.14395739875829
18.14409186042227
18.14423025954731
18.14437158982642
18.144514884171752
18.144659179968514
18.14480348071029
18.14494671774608
18.145087715135137
18.145225160809613
18.145357588927645
18.14548337471073
18.145600750513196
18.145707841416915
18.145802725319285
18.145883514705144
18.145948454996123
18.145996031602824
18.146025073237183
18.146034838420032
18.2359072119107
18.235914942509964
18.235937982937337
18.235975889671646
18.236027956840328
18.236093260677997
18.236170714707498
18.23625912564156
18.236357248417082
18.23646383000827
18.236577644864603
18.236697515473406
18.23682232010003
18.23695099089829
18.23708250139321
18.237215846164
18.237350017048378
18.237483976388624
18.237616630648912
18.237746807008364
18.23787323555768
18.23799454101008
18.23810924422979
18.238215780455587
18.238312531397263
18.238397874684004
18.238470247578174
18.23852822071256
18.238570576205763
18.238596381445426
18.23860504991988
18.32197436277543
18.321981376908486
18.322002296176002
18.32203675866252
18.322084184705993
18.322143808420183
18.322214717610034
18.322295894532644
18.32238625740171
18.322484694060872
18.32259009084251
18.32270135058462
18.322817401315625
18.322937198052173
18.323059716242653
18.3231839390019
18.323308841794223
18.3234333747677
18.32355644559414
18.32367690496095
18.323793536779817
18.32390505620897
18.324010115103352
18.324107320455546
18.324195262480497
18.32427255500039
18.324337885177812
18.324390069212267
18.32442811001005
18.324451250651077
18.324459017882916
18.4012656718218
18.401272085845466
18.401291225498326
18.401322788906572
18.40136628984432
18.401421080420906
18.401486380395006
18.401561307230814
18.401644907741414
18.40173618410809
18.40183411743816
18.40193768337033
18.402045860956584
18.402157636803228
18.402272002747484
18.402387948708082
18.402504453803328
18.40262047563998
18.40273494016039
18.4028467337491
18.40295469916672
18.403057637754262
18.403154317063624
18.403243488549062
18.403323911789848
18.403394387447868
18.403453796299992
18.403501141702183
18.403535592699118
18.403556523337613
18.40356354426933
18.47375362403794
18.47375953284224
18.473777172221084
18.473806285015367
18.473846454970555
18.473897123316835
18.473957610649258
18.47402713937459
18.47410485816424
18.474189862246345
18.47428121279424
18.474377950434427
18.474479103961627
18.474583695949985
18.474690743415074
18.47479925478969
18.474908225843706
18.4750166341951
18.475123434380997
18.47522755479764
18.475327897662712
18.47542334393352
18.475512762043863
18.475595024431176
18.47566902833004
18.47573372278393
18.475788139541574
18.475831425797132
18.475862876854496
18.47588196547128
18.475888365194603
18.539413048287784
18.539418530844596
18.539434903030894
18.539461941340782
18.539499282446485
18.53954643551512
18.539602798833716
18.53966767682165
18.539740299235966
18.5398198372034
18.539905419380336
18.539996143721662
18.540091085874643
18.54018930569454
18.54028984999524
18.540391752520748
18.54049403339393
18.54059569748432
18.540695733309256
18.540793113449382
18.540886797301397
18.54097573771005
18.54105889016514
18.541135228052674
18.541203760538526
18.54126355489095
18.541313761215573
18.541353638033346
18.541382577402363
18.541400127172736
18.541406008508442
18.598221486900467
18.598226610242037
18.598241913530092
18.59826719880292
18.59830214309065
18.59834630773212
18.59839915126068
18.598460042522152
18.59852827604707
18.598603084928012
18.59868365450647
18.598769132741793
18.59885863824028
18.598951267309797
18.599046098157526
18.599142193012568
18.59923860013079
18.59933435496861
18.599428481848584
18.59951999683568
18.599607912389736
18.599691245039956
18.59976902466681
18.599840308524264
18.599904196723895
18.59995985089738
18.60000651427819
18.600043531993432
18.60007037071004
18.60008663580917
18.60009208478076
18.650158443163434
18.65016326528839
18.65017767159056
18.650201483607447
18.65023440930431
18.650276050268925
18.650325911924874
18.650383413852524
18.650447902361666
18.65051866104209
18.650594922571997
18.650675877982685
18.650760684334966
18.65084847207872
18.65093835024155
18.651029410077417
18.6511207288975
18.651211373255183
18.651300402577213
18.651386873754355
18.651469847062383
18.651548394435814
18.651621608630915
18.65168861614227
18.651748590748063
18.65180076934006
18.65184446850032
18.65187910088827
18.65190419089706
18.651919388166665
18.65192447802774
18.695206344382704
18.69521091640782
18.695224577495967
18.695247164091953
18.695278407899476
18.695317941570497
18.695365307005204
18.69541996366481
18.69548129910313
18.695548637809495
18.69562125160221
18.695698368036165
18.695779177764635
18.695862842056293
18.695948498652545
18.69603526648497
18.696122250791085
18.696208547719806
18.69629324933812
18.696375449396015
18.6964542500751
18.696528770577057
18.696598156070564
18.696661589656923
18.696718304375537
18.696767596860933
18.69680884129089
18.696841502892728
18.696865150689803
18.696879468369513
18.6968842626094
18.733349605482285
18.73335397327557
18.73336702553135
18.733388610036997
18.73341847661713
18.733456281757377
18.73350159553798
18.733553908510856
18.73361264075119
18.733677149457435
18.733746738289927
18.733820665124487
18.733898149147667
18.733978378441734
18.73406051628514
18.73414370660712
18.734227079992774
18.734309759275202
18.734390865488212
18.734469524420284
18.734544873888474
18.734616072466064
18.7346823081826
18.734742809701295
18.73479685712373
18.73484379399954
18.734883039318966
18.734914098905815
18.73493657604946
18.73495018046583
18.734954735105582
18.764575356985294
18.7645795624259
18.76459213051579
18.76461291754545
18.764641686962225
18.764678113246525
18.76472178787985
18.76477222520677
18.764828870427586
18.764891106306255
18.764958261736517
18.765029619007066
18.765104420681467
18.765181877199762
18.765261173466246
18.765341474802433
18.7654219335551
18.765501695359664
18.76557990572993
18.765655717129977
18.765728296570504
18.76579683437501
18.76586055264282
18.765918715797447
18.76597064047785
18.766015706322488
18.766053366529942
18.766083157722054
18.76610470905729
18.766117749831224
18.766122115206674
18.788873052947515
18.788877134928207
18.78888933473526
18.788909514830912
18.788937448572792
18.788972823578188
18.78901524702664
18.789064250822666
18.789119298850956
18.789179793062555
18.789245081492876
18.789314465174854
18.78938720485387
18.78946252858126
18.789539638482022
18.78961771703501
18.789695934077553
18.789773453511565
18.78984944030941
18.789923067914977
18.789993526030067
18.79006002936837
18.790121825916685
18.790178207005642
18.79022851653245
18.79027216086381
18.79030861837987
18.790337448261205
18.790358298540877
18.79037091275877
18.790375134945272
18.806234366895403
18.806238362144157
18.80625030317701
18.806270056644152
18.806297402639583
18.806332037734162
18.806373579844927
18.806421572943396
18.806475493826838
18.806534757796783
18.80659872631184
18.806666713664384
18.806737993579006
18.8068118067898
18.806887367915092
18.806963871940788
18.80704050147129
18.807116433712014
18.807190847732016
18.807262932063356
18.807331892592657
18.80739696128619
18.80745740429871
18.807512531710028
18.807561706292272
18.807604352820245
18.807639966938222
18.807668123235274
18.807688482598717
18.80770079824818
18.807704920231323
18.816653517936793
18.816657461712804
18.81666924915151
18.816688749332062
18.816715746260066
18.81674994171474
18.816790959874393
18.816838351768673
18.816891601776344
18.816950133072467
18.817013315072863
18.817080469974126
18.817150879283243
18.81722379138107
18.81729842845314
18.817373993082985
18.81744967563706
18.817524661397325
18.81759813796273
18.817669302953334
18.817737371953477
18.817801587211875
18.81786122565623
18.817915608432187
18.817964109406038
18.818006164133674
18.818041278339926
18.81806903558871
18.818089104239696
18.818101243131323
18.81810530580073
18.82012694757695
18.820130874288413
18.820142610803497
18.820162026997462
18.820188908158713
18.820222957776103
18.820263802085602
18.820310994440142
18.82036402171854
18.820422309698113
18.82048523043131
18.820552108740845
18.820622228726773
18.820694841324652
18.82076917125367
18.8208444236448
18.820919791467965
18.820994462712317
18.821067627831347
18.821138487479708
18.82120626047172
18.821270192471882
18.82132956397776
18.82138369979339
18.82143197744531
18.821473836040102
18.821508784617535
18.821536409689188
18.821556382066547
18.821568462430314
18.8215725054612
