# vtk DataFile Version 2.0
Unstructured Grid Example
ASCII
DATASET UNSTRUCTURED_GRID

POINTS 961 float
0.400000004 0.01999999956 0
0.3866666556 0.01999999956 0
0.3733333348 0.01999999956 0
0.3600000144 0.01999999956 0
0.346666664 0.01999999956 0
0.3333333432 0.01999999956 0
0.3199999928 0.01999999956 0
0.3066666724 0.01999999956 0
0.293333322 0.01999999956 0
0.2800000012 0.01999999956 0
0.2666666804 0.01999999956 0
0.25333333 0.01999999956 0
0.2399999948 0.01999999956 0
0.226666674 0.01999999956 0
0.2133333384 0.01999999956 0
0.2000000028 0.01999999956 0
0.1866666676 0.01999999956 0
0.173333332 0.01999999956 0
0.1599999964 0.01999999956 0
0.1466666608 0.01999999956 0
0.1333333404 0.01999999956 0
0.1199999972 0.01999999956 0
0.1066666692 0.01999999956 0
0.0933333336 0.01999999956 0
0.0799999984 0.01999999956 0
0.06666667 0.01999999956 0
0.0533333348 0.01999999956 0
0.03999999912 0.01999999956 0
0.02666666732 0.01999999956 0
0.01333333364 0.01999999956 0
0.0 0.01999999956 0
0.400000004 0.00666666684 0
0.3866666556 0.00666666684 0
0.3733333348 0.00666666684 0
0.3600000144 0.00666666684 0
0.346666664 0.00666666684 0
0.3333333432 0.00666666684 0
0.3199999928 0.00666666684 0
0.3066666724 0.00666666684 0
0.293333322 0.00666666684 0
0.2800000012 0.00666666684 0
0.2666666804 0.00666666684 0
0.25333333 0.00666666684 0
0.2399999948 0.00666666684 0
0.226666674 0.00666666684 0
0.2133333384 0.00666666684 0
0.2000000028 0.00666666684 0
0.1866666676 0.00666666684 0
0.173333332 0.00666666684 0
0.1599999964 0.00666666684 0
0.1466666608 0.00666666684 0
0.1333333404 0.00666666684 0
0.1199999972 0.00666666684 0
0.1066666692 0.00666666684 0
0.0933333336 0.00666666684 0
0.0799999984 0.00666666684 0
0.06666667 0.00666666684 0
0.0533333348 0.00666666684 0
0.03999999912 0.00666666684 0
0.02666666732 0.00666666684 0
0.01333333364 0.00666666684 0
0.0 0.00666666684 0
0.400000004 -0.00666666684 0
0.3866666556 -0.00666666684 0
0.3733333348 -0.00666666684 0
0.3600000144 -0.00666666684 0
0.346666664 -0.00666666684 0
0.3333333432 -0.00666666684 0
0.3199999928 -0.00666666684 0
0.3066666724 -0.00666666684 0
0.293333322 -0.00666666684 0
0.2800000012 -0.00666666684 0
0.2666666804 -0.00666666684 0
0.25333333 -0.00666666684 0
0.2399999948 -0.00666666684 0
0.226666674 -0.00666666684 0
0.2133333384 -0.00666666684 0
0.2000000028 -0.00666666684 0
0.1866666676 -0.00666666684 0
0.173333332 -0.00666666684 0
0.1599999964 -0.00666666684 0
0.1466666608 -0.00666666684 0
0.1333333404 -0.00666666684 0
0.1199999972 -0.00666666684 0
0.1066666692 -0.00666666684 0
0.0933333336 -0.00666666684 0
0.0799999984 -0.00666666684 0
0.06666667 -0.00666666684 0
0.0533333348 -0.00666666684 0
0.03999999912 -0.00666666684 0
0.02666666732 -0.00666666684 0
0.01333333364 -0.00666666684 0
0.0 -0.00666666684 0
0.400000004 -0.01999999956 0
0.3866666556 -0.01999999956 0
0.3733333348 -0.01999999956 0
0.3600000144 -0.01999999956 0
0.346666664 -0.01999999956 0
0.3333333432 -0.01999999956 0
0.3199999928 -0.01999999956 0
0.3066666724 -0.01999999956 0
0.293333322 -0.01999999956 0
0.2800000012 -0.01999999956 0
0.2666666804 -0.01999999956 0
0.25333333 -0.01999999956 0
0.2399999948 -0.01999999956 0
0.226666674 -0.01999999956 0
0.2133333384 -0.01999999956 0
0.2000000028 -0.01999999956 0
0.1866666676 -0.01999999956 0
0.173333332 -0.01999999956 0
0.1599999964 -0.01999999956 0
0.1466666608 -0.01999999956 0
0.1333333404 -0.01999999956 0
0.1199999972 -0.01999999956 0
0.1066666692 -0.01999999956 0
0.0933333336 -0.01999999956 0
0.0799999984 -0.01999999956 0
0.06666667 -0.01999999956 0
0.0533333348 -0.01999999956 0
0.03999999912 -0.01999999956 0
0.02666666732 -0.01999999956 0
0.01333333364 -0.01999999956 0
0.0 -0.01999999956 0
0.400000004 -0.03333333508 0
0.3866666556 -0.03333333508 0
0.3733333348 -0.03333333508 0
0.3600000144 -0.03333333508 0
0.346666664 -0.03333333508 0
0.3333333432 -0.03333333508 0
0.3199999928 -0.03333333508 0
0.3066666724 -0.03333333508 0
0.293333322 -0.03333333508 0
0.2800000012 -0.03333333508 0
0.2666666804 -0.03333333508 0
0.25333333 -0.03333333508 0
0.2399999948 -0.03333333508 0
0.226666674 -0.03333333508 0
0.2133333384 -0.03333333508 0
0.2000000028 -0.03333333508 0
0.1866666676 -0.03333333508 0
0.173333332 -0.03333333508 0
0.1599999964 -0.03333333508 0
0.1466666608 -0.03333333508 0
0.1333333404 -0.03333333508 0
0.1199999972 -0.03333333508 0
0.1066666692 -0.03333333508 0
0.0933333336 -0.03333333508 0
0.0799999984 -0.03333333508 0
0.06666667 -0.03333333508 0
0.0533333348 -0.03333333508 0
0.03999999912 -0.03333333508 0
0.02666666732 -0.03333333508 0
0.01333333364 -0.03333333508 0
0.0 -0.03333333508 0
0.400000004 -0.0466666668 0
0.3866666556 -0.0466666668 0
0.3733333348 -0.0466666668 0
0.3600000144 -0.0466666668 0
0.346666664 -0.0466666668 0
0.3333333432 -0.0466666668 0
0.3199999928 -0.0466666668 0
0.3066666724 -0.0466666668 0
0.293333322 -0.0466666668 0
0.2800000012 -0.0466666668 0
0.2666666804 -0.0466666668 0
0.25333333 -0.0466666668 0
0.2399999948 -0.0466666668 0
0.226666674 -0.0466666668 0
0.2133333384 -0.0466666668 0
0.2000000028 -0.0466666668 0
0.1866666676 -0.0466666668 0
0.173333332 -0.0466666668 0
0.1599999964 -0.0466666668 0
0.1466666608 -0.0466666668 0
0.1333333404 -0.0466666668 0
0.1199999972 -0.0466666668 0
0.1066666692 -0.0466666668 0
0.0933333336 -0.0466666668 0
0.0799999984 -0.0466666668 0
0.06666667 -0.0466666668 0
0.0533333348 -0.0466666668 0
0.03999999912 -0.0466666668 0
0.02666666732 -0.0466666668 0
0.01333333364 -0.0466666668 0
0.0 -0.0466666668 0
0.400000004 -0.0599999988 0
0.3866666556 -0.0599999988 0
0.3733333348 -0.0599999988 0
0.3600000144 -0.0599999988 0
0.346666664 -0.0599999988 0
0.3333333432 -0.0599999988 0
0.3199999928 -0.0599999988 0
0.3066666724 -0.0599999988 0
0.293333322 -0.0599999988 0
0.2800000012 -0.0599999988 0
0.2666666804 -0.0599999988 0
0.25333333 -0.0599999988 0
0.2399999948 -0.0599999988 0
0.226666674 -0.0599999988 0
0.2133333384 -0.0599999988 0
0.2000000028 -0.0599999988 0
0.1866666676 -0.0599999988 0
0.173333332 -0.0599999988 0
0.1599999964 -0.0599999988 0
0.1466666608 -0.0599999988 0
0.1333333404 -0.0599999988 0
0.1199999972 -0.0599999988 0
0.1066666692 -0.0599999988 0
0.0933333336 -0.0599999988 0
0.0799999984 -0.0599999988 0
0.06666667 -0.0599999988 0
0.0533333348 -0.0599999988 0
0.03999999912 -0.0599999988 0
0.02666666732 -0.0599999988 0
0.01333333364 -0.0599999988 0
0.0 -0.0599999988 0
0.400000004 -0.0733333304 0
0.3866666556 -0.0733333304 0
0.3733333348 -0.0733333304 0
0.3600000144 -0.0733333304 0
0.346666664 -0.0733333304 0
0.3333333432 -0.0733333304 0
0.3199999928 -0.0733333304 0
0.3066666724 -0.0733333304 0
0.293333322 -0.0733333304 0
0.2800000012 -0.0733333304 0
0.2666666804 -0.0733333304 0
0.25333333 -0.0733333304 0
0.2399999948 -0.0733333304 0
0.226666674 -0.0733333304 0
0.2133333384 -0.0733333304 0
0.2000000028 -0.0733333304 0
0.1866666676 -0.0733333304 0
0.173333332 -0.0733333304 0
0.1599999964 -0.0733333304 0
0.1466666608 -0.0733333304 0
0.1333333404 -0.0733333304 0
0.1199999972 -0.0733333304 0
0.1066666692 -0.0733333304 0
0.0933333336 -0.0733333304 0
0.0799999984 -0.0733333304 0
0.06666667 -0.0733333304 0
0.0533333348 -0.0733333304 0
0.03999999912 -0.0733333304 0
0.02666666732 -0.0733333304 0
0.01333333364 -0.0733333304 0
0.0 -0.0733333304 0
0.400000004 -0.086666666 0
0.3866666556 -0.086666666 0
0.3733333348 -0.086666666 0
0.3600000144 -0.086666666 0
0.346666664 -0.086666666 0
0.3333333432 -0.086666666 0
0.3199999928 -0.086666666 0
0.3066666724 -0.086666666 0
0.293333322 -0.086666666 0
0.2800000012 -0.086666666 0
0.2666666804 -0.086666666 0
0.25333333 -0.086666666 0
0.2399999948 -0.086666666 0
0.226666674 -0.086666666 0
0.2133333384 -0.086666666 0
0.2000000028 -0.086666666 0
0.1866666676 -0.086666666 0
0.173333332 -0.086666666 0
0.1599999964 -0.086666666 0
0.1466666608 -0.086666666 0
0.1333333404 -0.086666666 0
0.1199999972 -0.086666666 0
0.1066666692 -0.086666666 0
0.0933333336 -0.086666666 0
0.0799999984 -0.086666666 0
0.06666667 -0.086666666 0
0.0533333348 -0.086666666 0
0.03999999912 -0.086666666 0
0.02666666732 -0.086666666 0
0.01333333364 -0.086666666 0
0.0 -0.086666666 0
0.400000004 -0.1000000016 0
0.3866666556 -0.1000000016 0
0.3733333348 -0.1000000016 0
0.3600000144 -0.1000000016 0
0.346666664 -0.1000000016 0
0.3333333432 -0.1000000016 0
0.3199999928 -0.1000000016 0
0.3066666724 -0.1000000016 0
0.293333322 -0.1000000016 0
0.2800000012 -0.1000000016 0
0.2666666804 -0.1000000016 0
0.25333333 -0.1000000016 0
0.2399999948 -0.1000000016 0
0.226666674 -0.1000000016 0
0.2133333384 -0.1000000016 0
0.2000000028 -0.1000000016 0
0.1866666676 -0.1000000016 0
0.173333332 -0.1000000016 0
0.1599999964 -0.1000000016 0
0.1466666608 -0.1000000016 0
0.1333333404 -0.1000000016 0
0.1199999972 -0.1000000016 0
0.1066666692 -0.1000000016 0
0.0933333336 -0.1000000016 0
0.0799999984 -0.1000000016 0
0.06666667 -0.1000000016 0
0.0533333348 -0.1000000016 0
0.03999999912 -0.1000000016 0
0.02666666732 -0.1000000016 0
0.01333333364 -0.1000000016 0
0.0 -0.1000000016 0
0.400000004 -0.1133333372 0
0.3866666556 -0.1133333372 0
0.3733333348 -0.1133333372 0
0.3600000144 -0.1133333372 0
0.346666664 -0.1133333372 0
0.3333333432 -0.1133333372 0
0.3199999928 -0.1133333372 0
0.3066666724 -0.1133333372 0
0.293333322 -0.1133333372 0
0.2800000012 -0.1133333372 0
0.2666666804 -0.1133333372 0
0.25333333 -0.1133333372 0
0.2399999948 -0.1133333372 0
0.226666674 -0.1133333372 0
0.2133333384 -0.1133333372 0
0.2000000028 -0.1133333372 0
0.1866666676 -0.1133333372 0
0.173333332 -0.1133333372 0
0.1599999964 -0.1133333372 0
0.1466666608 -0.1133333372 0
0.1333333404 -0.1133333372 0
0.1199999972 -0.1133333372 0
0.1066666692 -0.1133333372 0
0.0933333336 -0.1133333372 0
0.0799999984 -0.1133333372 0
0.06666667 -0.1133333372 0
0.0533333348 -0.1133333372 0
0.03999999912 -0.1133333372 0
0.02666666732 -0.1133333372 0
0.01333333364 -0.1133333372 0
0.0 -0.1133333372 0
0.400000004 -0.1266666652 0
0.3866666556 -0.1266666652 0
0.3733333348 -0.1266666652 0
[...]
POINT_DATA 961
SCALARS Temp float 1
LOOKUP_TABLE default
2.0390721160914316
2.1239766281947903
2.1919574144539227
2.247240076553893
2.29225488688862
2.3288060321312125
2.3583392269862893
2.3820622277601773
2.4010118296523166
2.4160878700843047
2.428078263235988
2.437675483842948
2.4454918847448712
2.4520774653330686
2.457937979691157
2.4635544120346182
2.4694053130537807
2.4759899021347493
2.4838523448155123
2.4936067967417417
2.505962722744707
2.5217513659285324
2.5419509291353988
2.5677160924856013
2.6004096658107287
2.6416452173894767
2.6933496164295523
2.757864637440456
2.838134819650971
2.9380760562163326
3.0645438820789255
2.084670175400042
2.167289070110677
2.234624376835147
2.289586410393717
2.334425785400687
2.370879575308548
2.40036146927079
2.4240618094909734
2.4430068850571613
2.4580899046580313
2.4700944579835773
2.4797102205524912
2.4875478092078134
2.4941561974969453
2.500040595701359
2.505681755567284
2.5115581181050812
2.518168756219845
2.526057474445998
2.5358376450112385
2.5482172768188573
2.5640251155870932
2.584235377926143
2.609996467204695
2.642661392660731
2.683828053264858
2.7353969713912853
2.7996618134828384
2.879461881505528
2.9784797467629005
3.1012156275052973
4.167879075707526
4.1821589161991355
4.22176225659265
4.261741733350977
4.2978756649219205
4.329167964669073
4.355660871325017
4.377763766728331
4.396020397212556
4.411012142815439
4.423314867922265
4.433479583167955
4.442026129147058
4.449445105193849
4.456205161522416
4.462764099848602
4.469582689472475
4.477140075765444
4.485949665264453
4.496574405559467
4.50964018024451
4.525845546283259
4.5459652893981275
4.570843949880263
4.601371091815767
4.638420837089871
4.682710968177951
4.734454403377237
4.792351894297567
4.850288100283514
4.871192072956829
6.150237156451418
6.158415290452135
6.179132533515669
6.20616302010905
6.233590066917233
6.259087393577241
6.2817702464877625
6.301433332915485
6.318204065162678
6.332375475411246
6.344320513764458
6.354446120625514
6.3631694282311155
6.370907256125378
6.378073848936034
6.3850840306995265
6.39235978477042
6.400338439806172
6.409480892231452
6.420278107591333
6.433253738432546
6.448960066460151
6.467962541844692
6.490806022560233
6.517948339773554
6.549633548761385
6.585642856569329
6.624772306363713
6.663683887321282
6.693678727385209
6.705563332886121
8.084486913432725
8.089194606130322
8.102114910544035
8.120210809715184
8.140390038395982
8.160412573586573
8.179094377635579
8.195899323528604
8.210675730153794
8.223496428897752
8.234564239243356
8.244155343421145
8.252585959273098
8.26019378653592
8.267328824013452
8.27435029008257
8.281627263485117
8.28954088125479
8.298486190912069
8.308871540054241
8.321112922618628
8.335619942835875
8.352768097351497
8.3728499159833
8.395991149117528
8.42200915962006
8.450172579360313
8.47880194551696
8.504651086861735
8.523195192846394
8.529966942685048
9.979940698740206
9.982980893846454
9.991502607203563
10.004005538099301
10.018688695553637
10.034008086930317
10.0488960364003
10.062738586020018
10.07525077094341
10.08636882809605
10.09617258111409
10.10483255446324
10.112575403673127
10.1196622886708
10.126375974361885
10.13301376914025
10.139884012791297
10.147303941961093
10.15559697409543
10.16508724533718
10.17608882874172
10.188886458369332
10.203703111766721
10.22064873480283
10.23964115722197
10.26028883825411
10.281727541684692
10.302428407921292
10.320156294454367
10.33228573406075
10.336621508839265
11.843318832481067
11.845352244149662
11.851140387136763
11.859859119312572
11.870445601999576
11.881876620150724
11.893344119175369
11.90430412052903
11.9144491467971
11.923653519437169
11.931921866173912
11.939348092205353
11.946085497973176
11.952326253171206
11.958287786491457
11.964204038573332
11.970319720114805
11.976885671216605
11.984153553758642
11.992367935956306
12.00175354774174
12.012495168951496
12.024706838987246
12.038387271334827
12.053358053190344
12.06918510611565
12.085094554303256
12.09992668974643
12.112202939077168
12.120379925818376
12.123257304678905
13.680146356002798
13.68150594830241
13.685410909948688
13.691391822072859
13.69881280595526
13.707018738259311
13.7154465354748
13.723679104477561
13.731451414985187
13.738629850994204
13.74518339630196
13.751156136330575
13.756644863391596
13.761782341324956
13.766725296159084
13.771645957720972
13.776725856304752
13.78215040407867
13.788102854527304
13.794756105533757
13.802260667863585
13.810727066402208
13.82020074774222
13.830628548644281
13.84181699592335
13.85338774832212
13.864744660109514
13.875079107499412
13.883446197871603
13.888925534500327
13.89083612200794
15.495718670733195
15.496579637669846
15.499066880083344
15.502917920310603
15.507766416966817
15.513218426295907
15.518917006812972
15.52458101163494
15.530018175836572
15.535119946716678
15.539847701855255
15.544216762683085
15.548281909209523
15.552125716705639
15.555849632268309
15.559567270942345
15.563399167803981
15.567468009083736
15.57189338403947
15.57678501750156
15.58223339769959
15.588296805256016
15.594983854371105
15.602231765658848
15.609881961317226
15.617658320707863
15.62515793526332
15.631868100145848
15.63722141853371
15.640688899996698
15.641890885335505
17.295357675073763
17.29581331828985
17.297135311375673
17.299199179955263
17.301827925198467
17.304826034574855
17.30801020391737
17.3112299587374
17.314376924204424
17.31738490892385
17.320224775325812
17.322897186519317
17.32542537341368
17.32784891136217
17.330218669340926
17.33259278760836
17.335033354002558
17.337603289841176
17.340362961191126
17.343365990516446
17.346653745108433
17.350248084979324
17.354142090102762
17.358289225230685
17.362592203649363
17.36689466546246
17.370980462903137
17.374586134637802
17.37743023992556
17.379257526899984
17.3798882636152
19.08448374773466
19.08457689284014
19.08485090913769
19.0852904481662
19.085872687150506
19.086570650482543
19.087356615105893
19.08820491643467
19.089093870243975
19.090006729400486
19.090931901489856
19.091862615037257
19.092796269045365
19.09373363496129
19.094677981857362
19.09563417488762
19.0966077704509
19.097604083634735
19.09862721446861
19.099679014971187
19.100757991247452
19.10185817328869
19.10296800192745
19.104069414511503
19.105137323269744
19.10613983825306
19.107039580111625
19.107796342151513
19.10837108950335
19.10873081793665
19.10885333832856
19.183984166126827
19.184060011083215
19.18428381022701
19.18464490252184
19.185127197978485
19.185711262339602
19.18637655992761
19.187103428224585
19.18787457507583
19.18867596885861
19.18949721582947
19.190331495730618
19.191175199153573
19.192027387279314
19.192889130962598
19.193762781456833
19.19465120880578
19.19555700378575
19.19648165105008
19.197424678048176
19.198382795440967
19.19934907662676
19.200312231046933
19.201256124048342
19.20215967263115
19.202997335938413
19.203740364621957
19.204358884451977
19.204824712462173
19.205114546521017
19.205212959036142
19.283076027397996
19.283138469056222
19.283323147510643
19.28362246523885
19.284024820870414
19.28451595896331
19.2850804778962
19.28570322400548
19.286370428755106
19.287070462425405
19.28779423973884
19.288535287954957
19.289289561012346
19.29005508089079
19.290831446188058
19.291619254701395
19.292419479697116
19.293232807408906
19.294058955845756
19.294895992634725
19.29573967820771
19.296582884699944
19.297415138613452
19.298222406349296
19.298987199413187
19.29968912986874
19.300305982532905
19.300815301467562
19.301196379309665
19.301432394273746
19.30151234273949
19.381802218512547
19.381853998791303
19.382007415593353
19.382256919443194
19.382593956950537
19.38300787235274
19.383486945398996
19.384019387132074
19.38459419805575
19.385201780253695
19.385834314150404
19.386485882027024
19.38715238529751
19.387831308619504
19.388521356395593
19.389222000572705
19.38993297809901
19.390653751253463
19.391382956848545
19.39211786826261
19.392853900090532
19.393584202220154
19.39429938120575
19.394987438387222
19.395633965118073
19.396222671146298
19.396736263322456
19.39715764353922
19.39747132934905
19.397664918725972
19.397730376381347
19.48020009197559
19.480243194631452
19.480371065152305
19.480579542180397
19.48086216459605
19.4812107953565
19.481616357240338
19.48206955899525
19.482561548130032
19.483084401439143
19.48363145426101
19.48419743934015
19.484778461030857
19.48537183934269
19.485975839044137
19.486589315184055
19.48721130980218
19.487840615079925
19.488475330561577
19.48911244017938
19.489747438359966
19.490374046051212
19.49098404496472
19.49156729641842
19.49211196241594
19.492604972788843
19.49303273250986
19.493382030826517
19.493641074715683
19.4938005208069
19.49385436068568
19.578302996335314
19.578338899209673
19.578445498501967
19.57861957402976
19.578856099053844
19.579148692615693
19.57949016308268
19.579873056086498
19.580290162825055
19.580734916378443
19.581201673432453
19.581685849736246
19.582183923204706
19.582693327548903
19.583212245229646
19.58373932497347
19.584273354400384
19.584812903140794
19.585355963219385
19.58589961172197
19.58643972269833
19.586970762986805
19.58748569295188
19.58797602185484
19.588432022868805
19.58884313322456
19.58919852421424
19.589487803855473
19.58970179103433
19.589833269909832
19.58987762559949
19.66781997805382
19.667849584668918
19.66793753615997
19.66808130703523
19.668276940015993
19.668519383626062
19.668802903472358
19.66912150320287
19.669469323897726
19.66984096355242
19.670231713029338
19.670637678551806
19.671055798082506
19.671483767056188
19.6719198783662
19.67236279678955
19.672811293912105
19.673263957853322
19.67371890214118
19.67417349648665
19.674624143086035
19.675066127182838
19.675493557368277
19.675899433022852
19.676275837388552
19.6766142712166
19.67690610917859
19.677143146285985
19.677318186511858
19.677425606283663
19.677461823035912
19.74155223794123
19.741576210866523
19.74164745749436
19.741764020038037
19.741922821593903
19.74211991703221
19.742350801913496
19.742610732211876
19.742895032905743
19.743199349449995
19.743519838809917
19.743853273867646
19.744197064800666
19.74454920786442
19.744908163928304
19.74527268251095
19.745641592761356
19.74601357377496
19.74638692519547
19.746759357622032
19.74712782253648
19.74748840473928
19.747836288319768
19.748165823957805
19.74847069279957
19.748744175547458
19.748979509711507
19.74917030796678
19.74931100118779
19.749397256821382
19.749426323237618
19.801317059676105
19.80133613793211
19.801392858805073
19.801485723632577
19.80161237132949
19.801769763507842
19.801954414325824
19.80216263034798
19.802390745187694
19.802635313364455
19.802893260803387
19.803161970164872
19.803439302564875
19.803723562727104
19.804013408356692
19.804307715770722
19.80460541892918
19.804905332068483
19.805205973217674
19.80550540463074
19.805801105971387
19.80608989814437
19.806367925397808
19.806630716156015
19.80687331662
19.80709050207329
19.807277051048768
19.807428060919644
19.807539277696325
19.807607404158723
19.807630351454264
19.849019963043542
19.84903490035482
19.849079324383023
19.849152102729413
19.849251447668323
19.84937505150068
19.849520255752118
19.84968422883581
19.849864141745158
19.850057314721123
19.850261333111302
19.850474114892197
19.850693930368514
19.850919378818986
19.851149321996875
19.85138278352491
19.851618827557232
19.851856424784017
19.852094319558127
19.85233091086326
19.85256415946154
19.852791534832722
19.85301000703552
19.853216098424333
19.853405989228293
19.85357567979412
19.85372119729511
19.853838830429794
19.853925372109988
19.85397834428275
19.85399618033781
19.886536033502814
19.88654755118464
19.886581815149537
19.886637980747896
19.886714712136087
19.886810280237402
19.886922685886837
19.887049789742434
19.887189441915638
19.88733959104974
19.887498371733646
19.887664156549995
19.887835572783708
19.8880114870359
19.888190957212302
19.88837315856877
19.888557294026576
19.8887424949471
19.888927723048326
19.88911168326919
19.88929275694924
19.889468965476606
19.88963796776434
19.889797102371254
19.88994346884853
19.89007404990155
19.890185864736782
19.890276141229187
19.890342492432143
19.890383078961275
19.89039674006277
19.91562255109659
19.915631306640698
19.915657360508447
19.915700090543837
19.91575851120656
19.91583134371463
19.915917104641796
19.916014199714862
19.91612101812778
19.91623601239381
19.91635776312886
19.91648501829716
19.916616706753647
19.916751928304805
19.916889919585653
19.917030000622702
19.917171509738587
19.917313731412946
19.917455825186252
19.917596762983592
19.917735281815386
19.917869859297284
19.91799871412753
19.91811983929972
19.91823106345484
19.918330141286
19.918414865616885
19.918483192058964
19.918533365909433
19.918564038221398
19.918574359088197
19.937862214415922
19.937868784249304
19.937888338992327
19.937920425785162
19.937964326208334
19.938019105969627
19.93808367792696
19.938156868989434
19.938237487839547
19.938324382548117
19.938416487825943
19.93851285406238
19.938612657942237
19.93871519617104
19.938819861588854
19.93892610517512
19.939033389588435
19.939141137601574
19.939248681426943
19.93935521836744
19.93945977786018
19.939561205284743
19.93965816385329
19.939749160138046
19.93983258950447
19.939906801990865
19.939970183113402
19.940021243019856
19.94005870670397
19.940081596118464
19.940089295929376
19.954632431776165
19.954637305453335
19.954651815121174
19.954675634679727
19.954708246084984
19.95474897418681
19.954797031083313
19.95485156329957
19.95491169983443
19.954976593192022
19.955045453365358
19.95511756897924
19.955192315405043
19.95526915090794
19.955347600168086
19.95542722766389
19.955507605020212
19.95558827471555
19.95566871451612
19.955748306567962
19.955826314776836
19.955901874300757
19.95597399393512
19.95604157533489
19.95610344613861
19.95615840733073
19.95620529079045
19.956243022340686
19.956270685218687
19.95628757760216
19.95629325853104
19.96709623968325
19.96709982232232
19.967110490808867
19.96712801239908
19.967152016860936
19.967182020682525
19.96721745800063
19.967257713546804
19.967302156388232
19.96735016882804
19.967401170563456
19.967454633879385
19.967510089733665
19.967567125474055
19.967625373621228
19.967684493468724
19.96774414844605
19.96780398092042
19.96786358757244
19.96792249814679
19.967980160141217
19.96803593212647
19.96808908613517
19.968138821907367
19.968184290737227
19.96822462914448
19.968258999442327
19.968286633902224
19.968306879012726
19.968319235442664
19.968323389854763
19.976207488694953
19.976210108841137
19.97621791292901
19.9762307357367
19.976248314093837
19.976270303601133
19.97629630006206
19.976325862335894
19.976358535867686
19.976393872890128
19.976431449461963
19.976470876290445
19.976511803237784
19.976553918033407
19.97659693872381
19.97664060108386
19.976684643088976
19.976728787603122
19.976772725510145
19.97681610126243
19.976858502638173
19.97689945658875
19.976938431402402
19.976974847151975
19.97700809271894
19.977037549554943
19.97706262008496
19.97708275844943
19.97709750118552
19.97710649483633
19.977109517875007
19.982725861740665
19.982727782263247
19.982733503793177
19.982742908862438
19.982755810114107
19.982771961851054
19.982791074887995
19.982812832398295
19.98283690631743
19.982862971451777
19.982890717485404
19.982919856677967
19.982950127190943
19.982981292414664
19.983013135917023
19.98304545286862
19.983078039439494
19.983110680957044
19.98314314040273
19.98317514863352
19.983206397575522
19.98323653770373
19.983265179906812
19.98329190313347
19.983316266534207
19.983337826222648
19.983356155160518
19.983370864561312
19.983381625170402
19.98338818635349
19.98339039121922
19.987236059561145
19.987237489917415
19.987241752101568
19.98724876131201
19.98725838210895
19.987270436500037
19.987284714373455
19.987300984633023
19.98731900678657
19.987338540927315
19.987359356306253
19.987381236878115
19.98740398378507
19.987427415051858
19.987451362184345
19.98747566427699
19.987500160708684
19.987524682968655
19.987549046743155
19.987573045245608
19.987596444668657
19.987618982686975
19.987640370037358
19.987660296185283
19.987678438099298
19.98769447223551
19.987708088650656
19.987719006111945
19.987726987065532
19.98773185102228
19.98773348513928
19.990167812395352
19.99016892116164
19.990172225749028
19.990177662374602
19.990185129032792
19.990194491391765
19.99020559042622
19.990218250564165
19.990232288210045
19.990247519093664
19.99026376463895
19.99028085611963
19.9902986365837
19.990316960757728
19.990335692674673
19.990354701471812
19.990373856169064
19.990393019812952
19.9904120438273
19.99043076329489
19.99044899381237
19.9904665306022
19.99048314986848
19.99049861315839
19.99051267395834
19.99052508661293
19.99053561675532
19.990544052417366
19.990550214999214
19.990553969050872
19.990555229988814
19.991813894925357
19.991814822013776
19.991817585562835
19.991822133499923
19.991828382458543
19.99183622247029
19.991845523054945
19.991856139719467
19.991867920787296
19.991880713290193
19.991894368112476
19.991908743370367
19.991923706018305
19.991939131858945
19.99195490373118
19.99197090823488
19.991987031652815
19.992003155368046
19.99201915145677
19.992034879037078
19.99205018188488
19.99206488786572
19.992078810149394
19.99209175083255
19.992103506317193
19.99211387452583
19.99212266329267
19.99212969926566
19.99213483667277
19.992137965121167
19.992139015740015
19.99234405959991
19.99234492799371
19.99234751674014
19.992351777522412
19.992357632954036
19.992364980887167
19.992373700010635
19.992383655823684
19.992394706924003
19.99240671043422
19.992419526753928
19.99243302268957
19.992447072957926
19.99246156022812
19.992476373486916
19.992491405058278
19.992506546889118
19.99252168637196
19.992536702332934
19.99255146171921
19.99256581745561
19.992579607975536
19.9925926583879
19.99260478386057
19.992615794607797
19.992625502559772
19.99263372910181
19.99264031327176
19.992645119823596
19.992648046395217
19.992649029150098
