# vtk DataFile Version 2.0
Unstructured Grid Example
ASCII
DATASET UNSTRUCTURED_GRID

POINTS 961 float
0.400000004 0.01999999956 0
0.3866666556 0.01999999956 0
0.3733333348 0.01999999956 0
0.3600000144 0.01999999956 0
0.346666664 0.01999999956 0
0.3333333432 0.01999999956 0
0.3199999928 0.01999999956 0
0.3066666724 0.01999999956 0
0.293333322 0.01999999956 0
0.2800000012 0.01999999956 0
0.2666666804 0.01999999956 0
0.25333333 0.01999999956 0
0.2399999948 0.01999999956 0
0.226666674 0.01999999956 0
0.2133333384 0.01999999956 0
0.2000000028 0.01999999956 0
0.1866666676 0.01999999956 0
0.173333332 0.01999999956 0
0.1599999964 0.01999999956 0
0.1466666608 0.01999999956 0
0.1333333404 0.01999999956 0
0.1199999972 0.01999999956 0
0.1066666692 0.01999999956 0
0.0933333336 0.01999999956 0
0.0799999984 0.01999999956 0
0.06666667 0.01999999956 0
0.0533333348 0.01999999956 0
0.03999999912 0.01999999956 0
0.02666666732 0.01999999956 0
0.01333333364 0.01999999956 0
0.0 0.01999999956 0
0.400000004 0.00666666684 0
0.3866666556 0.00666666684 0
0.3733333348 0.00666666684 0
0.3600000144 0.00666666684 0
0.346666664 0.00666666684 0
0.3333333432 0.00666666684 0
0.3199999928 0.00666666684 0
0.3066666724 0.00666666684 0
0.293333322 0.00666666684 0
0.2800000012 0.00666666684 0
0.2666666804 0.00666666684 0
0.25333333 0.00666666684 0
0.2399999948 0.00666666684 0
0.226666674 0.00666666684 0
0.2133333384 0.00666666684 0
0.2000000028 0.00666666684 0
0.1866666676 0.00666666684 0
0.173333332 0.00666666684 0
0.1599999964 0.00666666684 0
0.1466666608 0.00666666684 0
0.1333333404 0.00666666684 0
0.1199999972 0.00666666684 0
0.1066666692 0.00666666684 0
0.0933333336 0.00666666684 0
0.0799999984 0.00666666684 0
0.06666667 0.00666666684 0
0.0533333348 0.00666666684 0
0.03999999912 0.00666666684 0
0.02666666732 0.00666666684 0
0.01333333364 0.00666666684 0
0.0 0.00666666684 0
0.400000004 -0.00666666684 0
0.3866666556 -0.00666666684 0
0.3733333348 -0.00666666684 0
0.3600000144 -0.00666666684 0
0.346666664 -0.00666666684 0
0.3333333432 -0.00666666684 0
0.3199999928 -0.00666666684 0
0.3066666724 -0.00666666684 0
0.293333322 -0.00666666684 0
0.2800000012 -0.00666666684 0
0.2666666804 -0.00666666684 0
0.25333333 -0.00666666684 0
0.2399999948 -0.00666666684 0
0.226666674 -0.00666666684 0
0.2133333384 -0.00666666684 0
0.2000000028 -0.00666666684 0
0.1866666676 -0.00666666684 0
0.173333332 -0.00666666684 0
0.1599999964 -0.00666666684 0
0.1466666608 -0.00666666684 0
0.1333333404 -0.00666666684 0
0.1199999972 -0.00666666684 0
0.1066666692 -0.00666666684 0
0.0933333336 -0.00666666684 0
0.0799999984 -0.00666666684 0
0.06666667 -0.00666666684 0
0.0533333348 -0.00666666684 0
0.03999999912 -0.00666666684 0
0.02666666732 -0.00666666684 0
0.01333333364 -0.00666666684 0
0.0 -0.00666666684 0
0.400000004 -0.01999999956 0
0.3866666556 -0.01999999956 0
0.3733333348 -0.01999999956 0
0.3600000144 -0.01999999956 0
0.346666664 -0.01999999956 0
0.3333333432 -0.01999999956 0
0.3199999928 -0.01999999956 0
0.3066666724 -0.01999999956 0
0.293333322 -0.01999999956 0
0.2800000012 -0.01999999956 0
0.2666666804 -0.01999999956 0
0.25333333 -0.01999999956 0
0.2399999948 -0.01999999956 0
0.226666674 -0.01999999956 0
0.2133333384 -0.01999999956 0
0.2000000028 -0.01999999956 0
0.1866666676 -0.01999999956 0
0.173333332 -0.01999999956 0
0.1599999964 -0.01999999956 0
0.1466666608 -0.01999999956 0
0.1333333404 -0.01999999956 0
0.1199999972 -0.01999999956 0
0.1066666692 -0.01999999956 0
0.0933333336 -0.01999999956 0
0.0799999984 -0.01999999956 0
0.06666667 -0.01999999956 0
0.0533333348 -0.01999999956 0
0.03999999912 -0.01999999956 0
0.02666666732 -0.01999999956 0
0.01333333364 -0.01999999956 0
0.0 -0.01999999956 0
0.400000004 -0.03333333508 0
0.3866666556 -0.03333333508 0
0.3733333348 -0.03333333508 0
0.3600000144 -0.03333333508 0
0.346666664 -0.03333333508 0
0.3333333432 -0.03333333508 0
0.3199999928 -0.03333333508 0
0.3066666724 -0.03333333508 0
0.293333322 -0.03333333508 0
0.2800000012 -0.03333333508 0
0.2666666804 -0.03333333508 0
0.25333333 -0.03333333508 0
0.2399999948 -0.03333333508 0
0.226666674 -0.03333333508 0
0.2133333384 -0.03333333508 0
0.2000000028 -0.03333333508 0
0.1866666676 -0.03333333508 0
0.173333332 -0.03333333508 0
0.1599999964 -0.03333333508 0
0.1466666608 -0.03333333508 0
0.1333333404 -0.03333333508 0
0.1199999972 -0.03333333508 0
0.1066666692 -0.03333333508 0
0.0933333336 -0.03333333508 0
0.0799999984 -0.03333333508 0
0.06666667 -0.03333333508 0
0.0533333348 -0.03333333508 0
0.03999999912 -0.03333333508 0
0.02666666732 -0.03333333508 0
0.01333333364 -0.03333333508 0
0.0 -0.03333333508 0
0.400000004 -0.0466666668 0
0.3866666556 -0.0466666668 0
0.3733333348 -0.0466666668 0
0.3600000144 -0.0466666668 0
0.346666664 -0.0466666668 0
0.3333333432 -0.0466666668 0
0.3199999928 -0.0466666668 0
0.3066666724 -0.0466666668 0
0.293333322 -0.0466666668 0
0.2800000012 -0.0466666668 0
0.2666666804 -0.0466666668 0
0.25333333 -0.0466666668 0
0.2399999948 -0.0466666668 0
0.226666674 -0.0466666668 0
0.2133333384 -0.0466666668 0
0.2000000028 -0.0466666668 0
0.1866666676 -0.0466666668 0
0.173333332 -0.0466666668 0
0.1599999964 -0.0466666668 0
0.1466666608 -0.0466666668 0
0.1333333404 -0.0466666668 0
0.1199999972 -0.0466666668 0
0.1066666692 -0.0466666668 0
0.0933333336 -0.0466666668 0
0.0799999984 -0.0466666668 0
0.06666667 -0.0466666668 0
0.0533333348 -0.0466666668 0
0.03999999912 -0.0466666668 0
0.02666666732 -0.0466666668 0
0.01333333364 -0.0466666668 0
0.0 -0.0466666668 0
0.400000004 -0.0599999988 0
0.3866666556 -0.0599999988 0
0.3733333348 -0.0599999988 0
0.3600000144 -0.0599999988 0
0.346666664 -0.0599999988 0
0.3333333432 -0.0599999988 0
0.3199999928 -0.0599999988 0
0.3066666724 -0.0599999988 0
0.293333322 -0.0599999988 0
0.2800000012 -0.0599999988 0
0.2666666804 -0.0599999988 0
0.25333333 -0.0599999988 0
0.2399999948 -0.0599999988 0
0.226666674 -0.0599999988 0
0.2133333384 -0.0599999988 0
0.2000000028 -0.0599999988 0
0.1866666676 -0.0599999988 0
0.173333332 -0.0599999988 0
0.1599999964 -0.0599999988 0
0.1466666608 -0.0599999988 0
0.1333333404 -0.0599999988 0
0.1199999972 -0.0599999988 0
0.1066666692 -0.0599999988 0
0.0933333336 -0.0599999988 0
0.0799999984 -0.0599999988 0
0.06666667 -0.0599999988 0
0.0533333348 -0.0599999988 0
0.03999999912 -0.0599999988 0
0.02666666732 -0.0599999988 0
0.01333333364 -0.0599999988 0
0.0 -0.0599999988 0
0.400000004 -0.0733333304 0
0.3866666556 -0.0733333304 0
0.3733333348 -0.0733333304 0
0.3600000144 -0.0733333304 0
0.346666664 -0.0733333304 0
0.3333333432 -0.0733333304 0
0.3199999928 -0.0733333304 0
0.3066666724 -0.0733333304 0
0.293333322 -0.0733333304 0
0.2800000012 -0.0733333304 0
0.2666666804 -0.0733333304 0
0.25333333 -0.0733333304 0
0.2399999948 -0.0733333304 0
0.226666674 -0.0733333304 0
0.2133333384 -0.0733333304 0
0.2000000028 -0.0733333304 0
0.1866666676 -0.0733333304 0
0.173333332 -0.0733333304 0
0.1599999964 -0.0733333304 0
0.1466666608 -0.0733333304 0
0.1333333404 -0.0733333304 0
0.1199999972 -0.0733333304 0
0.1066666692 -0.0733333304 0
0.0933333336 -0.0733333304 0
0.0799999984 -0.0733333304 0
0.06666667 -0.0733333304 0
0.0533333348 -0.0733333304 0
0.03999999912 -0.0733333304 0
0.02666666732 -0.0733333304 0
0.01333333364 -0.0733333304 0
0.0 -0.0733333304 0
0.400000004 -0.086666666 0
0.3866666556 -0.086666666 0
0.3733333348 -0.086666666 0
0.3600000144 -0.086666666 0
0.346666664 -0.086666666 0
0.3333333432 -0.086666666 0
0.3199999928 -0.086666666 0
0.3066666724 -0.086666666 0
0.293333322 -0.086666666 0
0.2800000012 -0.086666666 0
0.2666666804 -0.086666666 0
0.25333333 -0.086666666 0
0.2399999948 -0.086666666 0
0.226666674 -0.086666666 0
0.2133333384 -0.086666666 0
0.2000000028 -0.086666666 0
0.1866666676 -0.086666666 0
0.173333332 -0.086666666 0
0.1599999964 -0.086666666 0
0.1466666608 -0.086666666 0
0.1333333404 -0.086666666 0
0.1199999972 -0.086666666 0
0.1066666692 -0.086666666 0
0.0933333336 -0.086666666 0
0.0799999984 -0.086666666 0
0.06666667 -0.086666666 0
0.0533333348 -0.086666666 0
0.03999999912 -0.086666666 0
0.02666666732 -0.086666666 0
0.01333333364 -0.086666666 0
0.0 -0.086666666 0
0.400000004 -0.1000000016 0
0.3866666556 -0.1000000016 0
0.3733333348 -0.1000000016 0
0.3600000144 -0.1000000016 0
0.346666664 -0.1000000016 0
0.3333333432 -0.1000000016 0
0.3199999928 -0.1000000016 0
0.3066666724 -0.1000000016 0
0.293333322 -0.1000000016 0
0.2800000012 -0.1000000016 0
0.2666666804 -0.1000000016 0
0.25333333 -0.1000000016 0
0.2399999948 -0.1000000016 0
0.226666674 -0.1000000016 0
0.2133333384 -0.1000000016 0
0.2000000028 -0.1000000016 0
0.1866666676 -0.1000000016 0
0.173333332 -0.1000000016 0
0.1599999964 -0.1000000016 0
0.1466666608 -0.1000000016 0
0.1333333404 -0.1000000016 0
0.1199999972 -0.1000000016 0
0.1066666692 -0.1000000016 0
0.0933333336 -0.1000000016 0
0.0799999984 -0.1000000016 0
0.06666667 -0.1000000016 0
0.0533333348 -0.1000000016 0
0.03999999912 -0.1000000016 0
0.02666666732 -0.1000000016 0
0.01333333364 -0.1000000016 0
0.0 -0.1000000016 0
0.400000004 -0.1133333372 0
0.3866666556 -0.1133333372 0
0.3733333348 -0.1133333372 0
0.3600000144 -0.1133333372 0
0.346666664 -0.1133333372 0
0.3333333432 -0.1133333372 0
0.3199999928 -0.1133333372 0
0.3066666724 -0.1133333372 0
0.293333322 -0.1133333372 0
0.2800000012 -0.1133333372 0
0.2666666804 -0.1133333372 0
0.25333333 -0.1133333372 0
0.2399999948 -0.1133333372 0
0.226666674 -0.1133333372 0
0.2133333384 -0.1133333372 0
0.2000000028 -0.1133333372 0
0.1866666676 -0.1133333372 0
0.173333332 -0.1133333372 0
0.1599999964 -0.1133333372 0
0.1466666608 -0.1133333372 0
0.1333333404 -0.1133333372 0
0.1199999972 -0.1133333372 0
0.1066666692 -0.1133333372 0
0.0933333336 -0.1133333372 0
0.0799999984 -0.1133333372 0
0.06666667 -0.1133333372 0
0.0533333348 -0.1133333372 0
0.03999999912 -0.1133333372 0
0.02666666732 -0.1133333372 0
0.01333333364 -0.1133333372 0
0.0 -0.1133333372 0
0.400000004 -0.1266666652 0
0.3866666556 -0.1266666652 0
0.3733333348 -0.1266666652 0
[...]
POINT_DATA 961
SCALARS Temp float 1
LOOKUP_TABLE default
0.8512362232983881
0.8855018355189227
0.9106512868167992
0.9294550974903142
0.9436929824150845
0.954586926678189
0.963010482817424
0.969597353379961
0.9748146109339613
0.9790108279919986
0.9824512310099549
0.9853418996755237
0.9878473689457237
0.9901043688282262
0.9922320100538554
0.9943398298995496
0.9965352133685174
0.9989301890601163
1.0016485810549818
1.004834203448494
1.0086608471935383
1.013345499903715
1.0191651299870645
1.0264807624128367
1.0357697688181062
1.0476719438205508
1.0630554341687
1.0831136933682035
1.1095148452932044
1.144671058231968
1.1924770331835157
0.8944464108621137
0.9280095530231477
0.9528956103898665
0.9715965675690984
0.9857850370915344
0.9966566375414837
1.0050715025811103
1.0116568566565387
1.016876329434613
1.0210766486022547
1.0245220438935936
1.0274180768542458
1.029929042344243
1.0321915805569686
1.0343247962532114
1.0364382691385723
1.038639441243845
1.0410403913219175
1.0437649612908084
1.0469569147052966
1.0507898687901087
1.0554804119329697
1.061304737294685
1.068622416833708
1.0779081765169753
1.0897969599504629
1.1051478070159733
1.1251357079849087
1.1513898424290392
1.1861969563991819
1.2328253758162246
2.9143536021988967
2.9195070124463074
2.933869125876372
2.9474427723055188
2.959000003885426
2.9685162149407267
2.9762682206732234
2.9825766633425856
2.9877356758934845
2.991996446861113
2.9955685948875415
2.9986268534040565
3.0013188371679558
3.00377250347106
3.0061028503409863
3.0084179301581178
3.0108244667907518
3.01343336065261
3.0163653678836373
3.019757293634119
3.0237690224728455
3.0285915773344705
3.034456223564484
3.0416440842366024
3.0504941056643853
3.061403321287407
3.074802241049315
3.091054673607265
3.110098325946989
3.1301793185647924
3.1373908801475547
4.9044754564066295
4.907331429842487
4.914406547988298
4.923375589707154
4.932092586712316
4.939883088720186
4.946599059887763
4.95229977771885
4.957117998323132
4.961204614903124
4.964706576388497
4.967759280980641
4.970485527469515
4.972997392554568
4.975399297129689
4.977791553623288
4.980274127229249
4.982950476980346
4.985931466528426
4.989339296341733
4.993311278864285
4.99800303403755
5.003589935845294
5.010264618741838
5.018225266973976
5.027643575213739
5.0385866984771495
5.050829922194319
5.0634121898003155
5.073328213487791
5.077326865001143
6.885988468209865
6.88754827273147
6.8917882661005905
6.897604644533803
6.903921540747354
6.910015779357193
6.91556903880632
6.920484361708779
6.924777116790069
6.928515128237545
6.931787841167376
6.934691038976597
6.937319993155367
6.939767157773378
6.942122230479725
6.944473467571547
6.946909649787033
6.949522282980123
6.9524077604814405
6.955669160758443
6.959417175033799
6.9637693174957445
6.968845739512066
6.9747588541597025
6.98159118815171
6.989351539823518
6.99789113619879
7.006751493716735
7.014910415266304
7.0208563054769355
7.023043340236862
8.861582826813562
8.8625554797942
8.86526190131052
8.869180294982222
8.873701758773294
8.87833205668763
8.882758938918636
8.886829714541582
8.890495393786457
8.893767791111994
8.896691890584245
8.89932935086551
8.901749335447906
8.904023906104493
8.90622610594408
8.90842961289334
8.910709253494632
8.913141826072653
8.915806811500294
8.918786493537713
8.922164835148559
8.926024148573935
8.930437913480155
8.93545737513319
8.941087945964732
8.947250126355375
8.953719598625455
8.96004951234334
8.965540127366822
8.969333786686665
8.970697292953991
10.832695686881728
10.833329634646338
10.835125742660468
10.837807659770673
10.84102727551888
10.84446222014548
10.84787287117288
10.851112121498723
10.854109027881542
10.856845598284563
10.85933752318236
10.86162050166701
10.863741454359277
10.865753333178064
10.867712306445007
10.869676446402256
10.871705278260073
10.873859638286973
10.876201384778822
10.878792455436852
10.881692629872886
10.884955149212777
10.888618923243603
10.892695847145276
10.897151329903302
10.901877084022551
10.906658781709002
10.911153382524603
10.914903369517356
10.91741686758372
10.918304330611772
12.800087527492554
12.800504852649508
12.801699875924854
12.803520158111771
12.80576297741808
12.80822560334569
12.810741216735272
12.813193712920254
12.815515926875271
12.817679744386725
12.819684859832652
12.821549269112618
12.82330234090148
12.82498024060311
12.826623105838388
12.828273419371099
12.829975099717279
12.831772847772742
12.833711348007466
12.835833883790771
12.838179843362749
12.840780495650545
12.843652232780434
12.846786631037077
12.850136936834954
12.853602183276006
12.85701345351733
12.860131501976381
12.862667798185004
12.86433500807531
12.86491756168256
14.764267786134868
14.764531044338968
14.765290282423027
14.766462313394522
14.767932750301512
14.769581431585088
14.771303042829262
14.773018316087555
14.77467637062557
14.776251285113169
14.777736460018033
14.77913895947264
14.780474909478807
14.781766182560693
14.783038166397365
14.784318330646794
14.78563529268985
14.787018059093933
14.788495151754427
14.790093301592943
14.79183535282948
14.793736999028093
14.795801934423976
14.798015281615228
14.800335556230992
14.802686690637891
14.80495330847287
14.806984053675505
14.808607460158697
14.809660940883301
14.810026521149721
16.72562990035075
16.72577174441678
16.726183161190363
16.72682528395901
16.72764351278622
16.72857865336318
16.7295766158855
16.730594450960144
16.731602496905023
16.73258359669392
16.73353086244815
16.734445061683292
16.735332288817265
16.736202165497403
16.73706654057691
16.73793858329347
16.7388321325905
16.739761133409804
16.7407390063212
16.741777783046274
16.742886827784446
16.74407097385319
16.745327915224767
16.7466449022272
16.74799503917375
16.749334120922835
16.750599585137437
16.751713544858184
16.75259134003445
16.753155178039023
16.753349805657752
18.684517586067486
18.68455279975911
18.684656735462397
18.684824570141558
18.68504914906415
18.685322032361235
18.685634541488113
18.68597858369724
18.68634717880448
18.686734676533593
18.68713675926973
18.687550297023762
18.687973134362952
18.688403862727586
18.68884159225376
18.689285733102643
18.689735790056773
18.690191155775494
18.690650894902763
18.6911135086305
18.69157667200058
18.692036947933918
18.692489482589934
18.69292773505294
18.693343292619474
18.69372588620549
18.69406372270427
18.6943442333134
18.6945552545834
18.694686505717744
18.694731070370295
18.79375519739762
18.793785400632242
18.793874825294814
18.79402008892927
18.79421608151865
18.794456611207337
18.794735085965673
18.795045092960727
18.79538081921821
18.79573727764068
18.796110384073383
18.79649691101254
18.796894368707907
18.797300853882682
18.797714878515073
18.798135191780112
18.79856060440666
18.798989807906743
18.799421187797254
18.79985262780838
18.800281304911213
18.800703485615973
18.801114332513297
18.801507768653465
18.80187643366379
18.802211805239768
18.802504542685718
18.802745086247576
18.802924491786904
18.80303539530441
18.803072930825326
18.902815987066887
18.902842420077896
18.902920864780917
18.903048864352325
18.903222651568367
18.903437560147292
18.903688478207787
18.903970255575288
18.904278027623114
18.904607416352746
18.904954631982804
18.905316478495234
18.90569029419956
18.90607385574158
18.906465253847845
18.90686275361199
18.907264650924834
18.907669121908132
18.90807406900712
18.90847696550318
18.90887470251961
18.90926345124661
18.90963854895616
18.909994447853684
18.910324745202587
18.91062234050758
18.9108797433922
18.911089537367882
18.91124497155043
18.91134060458488
18.9113728926674
19.01170808202778
19.011731630513765
19.011801637636268
19.01191625626681
19.01207261875612
19.01226710714822
19.012495661941152
19.012754071052314
19.013038216118982
19.013344240219016
19.013668650557886
19.014008348556423
19.01436060612692
19.014723007793698
19.015093362812557
19.015469598449958
19.015849646502943
19.01623132233802
19.016612202671176
19.01698950650848
19.01735998523587
19.01771983451491
19.018064634298465
19.018389347844625
19.018688386863314
19.01895577111605
19.01918538898861
19.019371352914916
19.0195084241015
19.01959245335712
19.019620770478493
19.120437842264458
19.120459162730317
19.120522629467843
19.120626803616688
19.120769427983337
19.1209476103735
19.121158039627762
19.121397194115392
19.12166152974035
19.121947616332438
19.122252232037972
19.122572403156138
19.122905400933053
19.123248709018785
19.123599962484946
19.12395686766245
19.124317114427495
19.12467828134359
19.12503774106837
19.125392571652764
19.125739480235293
19.126074750670234
19.126394218844077
19.1266932999896
19.12696706768948
19.12721040244143
19.127418207910665
19.127585685091606
19.127708643581435
19.127783812466127
19.127809107482655
19.229010298436094
19.229029896200558
19.229088291048257
19.229184318975236
19.22931613815428
19.22948135818675
19.22967719659284
19.229900633325087
19.23014855683033
19.23041787487146
19.23070559829436
19.231008883260294
19.23132503928419
19.231651512957832
19.23198584599174
19.2323256151652
19.232668365020697
19.23301153411201
19.23335238257236
19.23368792698481
19.234014888869027
19.23432966693716
19.23462833468733
19.23490668281895
19.23516030160406
19.23538471502113
19.235575560925408
19.23572880695822
19.235840985866297
19.23590942318447
19.23593242844887
19.332360651637636
19.332378745543195
19.332432696833767
19.332521536867077
19.332643722294076
19.33279722940937
19.332979671122345
19.333188414333627
19.333420695366467
19.333673710333294
19.333944688152663
19.334230931437258
19.334529830228455
19.334838856017686
19.335155533263098
19.33547739461879
19.33580192976978
19.33612652867869
19.336448426821242
19.33676465821473
19.337072021995567
19.337367071299433
19.337646124358415
19.337905313770282
19.338140666528837
19.338348223107158
19.338524188384202
19.33866510484072
19.338768035349997
19.33883073554476
19.33885179587076
19.425526166922968
19.425542757210632
19.425592250265215
19.425673829440054
19.425786186349274
19.42592759124373
19.426095982076582
19.42628905482889
19.426504355349955
19.426739352794705
19.42699150217915
19.42725828190732
19.427537209894112
19.427825844120456
19.428121764038536
19.42842253790377
19.42872568487206
19.429028632440122
19.42932867622827
19.42962294737795
19.42990839255206
19.430181773930613
19.43043968795053
19.43067861603734
19.430894998745142
19.431085339507753
19.431246330577494
19.43137499279206
19.431468819437526
19.43152590915022
19.431545073796073
19.508762296877514
19.508777389111682
19.50882243013322
19.508896725602515
19.50899915815701
19.50912824085414
19.509282186041432
19.509458975641735
19.50965643468854
19.509872290955784
19.510104228011517
19.510349918631345
19.510607041410992
19.51087328532767
19.51114633832336
19.511423864057583
19.511703474611167
19.51198269941529
19.512258956645493
19.512529531672847
19.512791566751787
19.51304206811038
19.51327792844694
19.513495975971118
19.513693041110034
19.513866045804342
19.514012108374548
19.51412865688828
19.514213543588895
19.514265148884636
19.514282464737043
19.582440861924518
19.58245447887956
19.582495128748583
19.58256221832555
19.5826547895934
19.582771560898628
19.582910980867204
19.583071283596855
19.5832505478564
19.583446745520263
19.58365778628692
19.583881546885426
19.58411588712928
19.58435865679679
19.584607689360674
19.584860785963137
19.585115696413318
19.585370097184928
19.585621571842914
19.585867597784308
19.586105542713845
19.58633267595772
19.58654619220178
19.586743257109
19.586921066175766
19.587076920926812
19.587208316102668
19.587313031968133
19.58738922606137
19.587435515482802
19.587451042239312
19.647027167019157
19.64703935434633
19.64707574447283
19.64713582946642
19.647218786649926
19.64732351068478
19.64744865618821
19.64759268138946
19.647753895997432
19.64793050057359
19.648120624078604
19.648322349102212
19.64853372681865
19.648752785065835
19.64897752570789
19.649205914066236
19.649435866273194
19.64966523427524
19.64989179312769
19.650113233800354
19.650327164244704
19.650531122926903
19.650722602233945
19.65089908983084
19.651058119872992
19.651197337599342
19.65131457171968
19.651407909772033
19.651475772114054
19.65151697758331
19.65153079522698
19.703054706662417
19.703065534312085
19.703097870190298
19.703151279101384
19.70322505449546
19.703318243689132
19.703429681804028
19.70355802649683
19.703701796802015
19.703859405172704
19.70402918893017
19.704209431893428
19.704398377997716
19.70459423983896
19.704795198547764
19.70499939728073
19.705204933352803
19.705409848546477
19.70561212151698
19.70580966492072
19.706000329448873
19.70618191822029
19.706352208925882
19.706508990653138
19.706650107993877
19.706773515526173
19.70687733783511
19.70695993113564
19.707019943187536
19.707056366004558
19.70706857711418
19.751099198876666
19.75110875976973
19.75113731655238
19.751184496315894
19.75124969242676
19.751332084493345
19.751430665557056
19.751544269855817
19.75167160444412
19.75181127530648
19.75196181367209
19.752121694473374
19.752289348568702
19.752463171284113
19.752641523975452
19.752822730492586
19.753005072835553
19.75318678540613
19.753366051134158
19.753541001598098
19.75370972285267
19.753870269797634
19.75402068657047
19.754159038919376
19.75428345191472
19.75439215573573
19.754483535393412
19.75455618119002
19.754608937388827
19.7546409447228
19.754651673493324
19.791751952135975
19.79176035925773
19.791785472766595
19.791826972919417
19.791884338687073
19.791956863664275
19.792043677979247
19.792143770595967
19.792256015148343
19.792379191276897
19.792512006660182
19.792653112739295
19.792801115593186
19.792954584195666
19.793112053069585
19.793272020888438
19.793432948678824
19.79359325694432
19.793751324439917
19.79390549029319
19.794054060806474
19.794195323265686
19.794327564390606
19.794449098557866
19.79455829989932
19.794653640711854
19.79473373265865
19.794797368165316
19.7948435600828
19.79487157611837
19.794880965525333
19.825595958476406
19.825603341219587
19.825625396809652
19.82566185041377
19.825712253528035
19.825775996746945
19.82585232753684
19.825940368261463
19.82603913740056
19.82614756706297
19.82626452148915
19.826388810465495
19.826519198965357
19.826654414971294
19.826793152798903
19.826934073203805
19.827075803383817
19.82721693615223
19.82735603055034
19.827491615250544
19.827622195784095
19.82774626750832
19.82786233212654
19.827968922196266
19.82806462842042
19.828148131897795
19.828218238345254
19.828273912182247
19.828314309003876
19.82833880362208
19.82834701171867
19.85318257614397
19.85318907656362
19.853208497787033
19.853240602222197
19.853285001642384
19.85334116753873
19.853408445677267
19.853486070803353
19.85357318421847
19.853668848272147
19.853772062007536
19.853881772668995
19.853996884260816
19.85411626487973
19.854238750418844
19.854363145709957
19.854488225766175
19.854612736384297
19.85473539599764
19.854854899857195
19.85496992734171
19.85507915398426
19.855181266210693
19.85527498264694
19.855359077402646
19.85543240728488
19.855493940398315
19.855542784408986
19.855578213340202
19.855599690604016
19.855606886726108
19.875012172213612
19.87501794157068
19.875035179745698
19.875063679131465
19.87510310011909
19.87515297962083
19.875212743171524
19.87528171710141
19.875359143300898
19.87544419137791
19.87553597205217
19.875633547137046
19.875735937192616
19.87584212838127
19.875951076363204
19.87606170813075
19.87617292408128
19.87628359958923
19.876392587668928
19.876498723595333
19.876600832106586
19.876697738522054
19.876788281938033
19.87687133389156
19.876945818415855
19.877010735254974
19.877065184051894
19.877108388085745
19.87713971668047
19.877158704386158
19.87716506569696
19.891516901974935
19.89152209783156
19.891537623288002
19.89156329376741
19.891598807051782
19.891643750466308
19.89169761117281
19.89175978648164
19.891829596527494
19.89190629469313
19.891989079304725
19.89207710244957
19.89216947691394
19.89226528262422
19.89236357062069
19.892463365337036
19.892563667208655
19.892663454878672
19.89276168836873
19.892857313925113
19.89294927103635
19.893036502765682
19.893117967701947
19.89319265655902
19.893259609756253
19.893317937600255
19.89336684115574
19.89340563260304
19.893433754386407
19.89345079554575
19.893456504216076
19.903046870932915
19.90305165488503
19.903065950132575
19.903089588395396
19.90312229393853
19.903163689843616
19.90321330706226
19.90327059345404
19.903334925020722
19.903405615134005
19.90348192504496
19.90356307188249
19.90364823507552
19.9037365624759
19.903827174351726
19.90391916593677
19.904011610363455
19.90410356125945
19.90419405621801
19.904282121745275
19.904366780094286
19.904447058997505
19.90452200270732
19.90459068711934
19.904652235605983
19.90470583707395
19.904750764526177
19.90478639307868
19.904812216858186
19.904827863372816
19.90483310448795
19.90985974248969
19.909864278501676
19.909877833210004
19.9099002480514
19.909931263090918
19.90997052276189
19.91001758419541
19.910071925514995
19.910132956225816
19.910200025741158
19.91027243319144
19.91034943493593
19.91043025067387
19.910514069368034
19.91060005323556
19.910687340440465
19.910775048198918
19.910862275585824
19.910948107160067
19.911031617949497
19.911111880154905
19.911187972508007
19.91125899075803
19.911324061909422
19.91138235901633
19.911433117982313
19.911475654761087
19.91150938199778
19.911533824606643
19.91154863299387
19.911553593142987
19.912113024141103
19.912117477384957
19.912130784879018
19.912152791288776
19.912183241930894
19.91222178833876
19.912267996353812
19.912321354176065
19.912381282474673
19.91244714268354
19.912518246578713
19.91259386362843
19.91267322700053
19.9127555394181
19.912839977147172
19.912925692733825
19.91301181816317
19.913097467731937
19.913181741721324
19.91326373139072
19.913342525635105
19.913417220215848
19.913486928061573
19.913550793210586
19.91360800526056
19.91365781575199
19.91369955491902
19.913732647877016
19.91375662976526
19.913771158591928
19.913776025026458
