# vtk DataFile Version 2.0
Unstructured Grid Example
ASCII
DATASET UNSTRUCTURED_GRID

POINTS 961 float
0.400000004 0.01999999956 0
0.3866666556 0.01999999956 0
0.3733333348 0.01999999956 0
0.3600000144 0.01999999956 0
0.346666664 0.01999999956 0
0.3333333432 0.01999999956 0
0.3199999928 0.01999999956 0
0.3066666724 0.01999999956 0
0.293333322 0.01999999956 0
0.2800000012 0.01999999956 0
0.2666666804 0.01999999956 0
0.25333333 0.01999999956 0
0.2399999948 0.01999999956 0
0.226666674 0.01999999956 0
0.2133333384 0.01999999956 0
0.2000000028 0.01999999956 0
0.1866666676 0.01999999956 0
0.173333332 0.01999999956 0
0.1599999964 0.01999999956 0
0.1466666608 0.01999999956 0
0.1333333404 0.01999999956 0
0.1199999972 0.01999999956 0
0.1066666692 0.01999999956 0
0.0933333336 0.01999999956 0
0.0799999984 0.01999999956 0
0.06666667 0.01999999956 0
0.0533333348 0.01999999956 0
0.03999999912 0.01999999956 0
0.02666666732 0.01999999956 0
0.01333333364 0.01999999956 0
0.0 0.01999999956 0
0.400000004 0.00666666684 0
0.3866666556 0.00666666684 0
0.3733333348 0.00666666684 0
0.3600000144 0.00666666684 0
0.346666664 0.00666666684 0
0.3333333432 0.00666666684 0
0.3199999928 0.00666666684 0
0.3066666724 0.00666666684 0
0.293333322 0.00666666684 0
0.2800000012 0.00666666684 0
0.2666666804 0.00666666684 0
0.25333333 0.00666666684 0
0.2399999948 0.00666666684 0
0.226666674 0.00666666684 0
0.2133333384 0.00666666684 0
0.2000000028 0.00666666684 0
0.1866666676 0.00666666684 0
0.173333332 0.00666666684 0
0.1599999964 0.00666666684 0
0.1466666608 0.00666666684 0
0.1333333404 0.00666666684 0
0.1199999972 0.00666666684 0
0.1066666692 0.00666666684 0
0.0933333336 0.00666666684 0
0.0799999984 0.00666666684 0
0.06666667 0.00666666684 0
0.0533333348 0.00666666684 0
0.03999999912 0.00666666684 0
0.02666666732 0.00666666684 0
0.01333333364 0.00666666684 0
0.0 0.00666666684 0
0.400000004 -0.00666666684 0
0.3866666556 -0.00666666684 0
0.3733333348 -0.00666666684 0
0.3600000144 -0.00666666684 0
0.346666664 -0.00666666684 0
0.3333333432 -0.00666666684 0
0.3199999928 -0.00666666684 0
0.3066666724 -0.00666666684 0
0.293333322 -0.00666666684 0
0.2800000012 -0.00666666684 0
0.2666666804 -0.00666666684 0
0.25333333 -0.00666666684 0
0.2399999948 -0.00666666684 0
0.226666674 -0.00666666684 0
0.2133333384 -0.00666666684 0
0.2000000028 -0.00666666684 0
0.1866666676 -0.00666666684 0
0.173333332 -0.00666666684 0
0.1599999964 -0.00666666684 0
0.1466666608 -0.00666666684 0
0.1333333404 -0.00666666684 0
0.1199999972 -0.00666666684 0
0.1066666692 -0.00666666684 0
0.0933333336 -0.00666666684 0
0.0799999984 -0.00666666684 0
0.06666667 -0.00666666684 0
0.0533333348 -0.00666666684 0
0.03999999912 -0.00666666684 0
0.02666666732 -0.00666666684 0
0.01333333364 -0.00666666684 0
0.0 -0.00666666684 0
0.400000004 -0.01999999956 0
0.3866666556 -0.01999999956 0
0.3733333348 -0.01999999956 0
0.3600000144 -0.01999999956 0
0.346666664 -0.01999999956 0
0.3333333432 -0.01999999956 0
0.3199999928 -0.01999999956 0
0.3066666724 -0.01999999956 0
0.293333322 -0.01999999956 0
0.2800000012 -0.01999999956 0
0.2666666804 -0.01999999956 0
0.25333333 -0.01999999956 0
0.2399999948 -0.01999999956 0
0.226666674 -0.01999999956 0
0.2133333384 -0.01999999956 0
0.2000000028 -0.01999999956 0
0.1866666676 -0.01999999956 0
0.173333332 -0.01999999956 0
0.1599999964 -0.01999999956 0
0.1466666608 -0.01999999956 0
0.1333333404 -0.01999999956 0
0.1199999972 -0.01999999956 0
0.1066666692 -0.01999999956 0
0.0933333336 -0.01999999956 0
0.0799999984 -0.01999999956 0
0.06666667 -0.01999999956 0
0.0533333348 -0.01999999956 0
0.03999999912 -0.01999999956 0
0.02666666732 -0.01999999956 0
0.01333333364 -0.01999999956 0
0.0 -0.01999999956 0
0.400000004 -0.03333333508 0
0.3866666556 -0.03333333508 0
0.3733333348 -0.03333333508 0
0.3600000144 -0.03333333508 0
0.346666664 -0.03333333508 0
0.3333333432 -0.03333333508 0
0.3199999928 -0.03333333508 0
0.3066666724 -0.03333333508 0
0.293333322 -0.03333333508 0
0.2800000012 -0.03333333508 0
0.2666666804 -0.03333333508 0
0.25333333 -0.03333333508 0
0.2399999948 -0.03333333508 0
0.226666674 -0.03333333508 0
0.2133333384 -0.03333333508 0
0.2000000028 -0.03333333508 0
0.1866666676 -0.03333333508 0
0.173333332 -0.03333333508 0
0.1599999964 -0.03333333508 0
0.1466666608 -0.03333333508 0
0.1333333404 -0.03333333508 0
0.1199999972 -0.03333333508 0
0.1066666692 -0.03333333508 0
0.0933333336 -0.03333333508 0
0.0799999984 -0.03333333508 0
0.06666667 -0.03333333508 0
0.0533333348 -0.03333333508 0
0.03999999912 -0.03333333508 0
0.02666666732 -0.03333333508 0
0.01333333364 -0.03333333508 0
0.0 -0.03333333508 0
0.400000004 -0.0466666668 0
0.3866666556 -0.0466666668 0
0.3733333348 -0.0466666668 0
0.3600000144 -0.0466666668 0
0.346666664 -0.0466666668 0
0.3333333432 -0.0466666668 0
0.3199999928 -0.0466666668 0
0.3066666724 -0.0466666668 0
0.293333322 -0.0466666668 0
0.2800000012 -0.0466666668 0
0.2666666804 -0.0466666668 0
0.25333333 -0.0466666668 0
0.2399999948 -0.0466666668 0
0.226666674 -0.0466666668 0
0.2133333384 -0.0466666668 0
0.2000000028 -0.0466666668 0
0.1866666676 -0.0466666668 0
0.173333332 -0.0466666668 0
0.1599999964 -0.0466666668 0
0.1466666608 -0.0466666668 0
0.1333333404 -0.0466666668 0
0.1199999972 -0.0466666668 0
0.1066666692 -0.0466666668 0
0.0933333336 -0.0466666668 0
0.0799999984 -0.0466666668 0
0.06666667 -0.0466666668 0
0.0533333348 -0.0466666668 0
0.03999999912 -0.0466666668 0
0.02666666732 -0.0466666668 0
0.01333333364 -0.0466666668 0
0.0 -0.0466666668 0
0.400000004 -0.0599999988 0
0.3866666556 -0.0599999988 0
0.3733333348 -0.0599999988 0
0.3600000144 -0.0599999988 0
0.346666664 -0.0599999988 0
0.3333333432 -0.0599999988 0
0.3199999928 -0.0599999988 0
0.3066666724 -0.0599999988 0
0.293333322 -0.0599999988 0
0.2800000012 -0.0599999988 0
0.2666666804 -0.0599999988 0
0.25333333 -0.0599999988 0
0.2399999948 -0.0599999988 0
0.226666674 -0.0599999988 0
0.2133333384 -0.0599999988 0
0.2000000028 -0.0599999988 0
0.1866666676 -0.0599999988 0
0.173333332 -0.0599999988 0
0.1599999964 -0.0599999988 0
0.1466666608 -0.0599999988 0
0.1333333404 -0.0599999988 0
0.1199999972 -0.0599999988 0
0.1066666692 -0.0599999988 0
0.0933333336 -0.0599999988 0
0.0799999984 -0.0599999988 0
0.06666667 -0.0599999988 0
0.0533333348 -0.0599999988 0
0.03999999912 -0.0599999988 0
0.02666666732 -0.0599999988 0
0.01333333364 -0.0599999988 0
0.0 -0.0599999988 0
0.400000004 -0.0733333304 0
0.3866666556 -0.0733333304 0
0.3733333348 -0.0733333304 0
0.3600000144 -0.0733333304 0
0.346666664 -0.0733333304 0
0.3333333432 -0.0733333304 0
0.3199999928 -0.0733333304 0
0.3066666724 -0.0733333304 0
0.293333322 -0.0733333304 0
0.2800000012 -0.0733333304 0
0.2666666804 -0.0733333304 0
0.25333333 -0.0733333304 0
0.2399999948 -0.0733333304 0
0.226666674 -0.0733333304 0
0.2133333384 -0.0733333304 0
0.2000000028 -0.0733333304 0
0.1866666676 -0.0733333304 0
0.173333332 -0.0733333304 0
0.1599999964 -0.0733333304 0
0.1466666608 -0.0733333304 0
0.1333333404 -0.0733333304 0
0.1199999972 -0.0733333304 0
0.1066666692 -0.0733333304 0
0.0933333336 -0.0733333304 0
0.0799999984 -0.0733333304 0
0.06666667 -0.0733333304 0
0.0533333348 -0.0733333304 0
0.03999999912 -0.0733333304 0
0.02666666732 -0.0733333304 0
0.01333333364 -0.0733333304 0
0.0 -0.0733333304 0
0.400000004 -0.086666666 0
0.3866666556 -0.086666666 0
0.3733333348 -0.086666666 0
0.3600000144 -0.086666666 0
0.346666664 -0.086666666 0
0.3333333432 -0.086666666 0
0.3199999928 -0.086666666 0
0.3066666724 -0.086666666 0
0.293333322 -0.086666666 0
0.2800000012 -0.086666666 0
0.2666666804 -0.086666666 0
0.25333333 -0.086666666 0
0.2399999948 -0.086666666 0
0.226666674 -0.086666666 0
0.2133333384 -0.086666666 0
0.2000000028 -0.086666666 0
0.1866666676 -0.086666666 0
0.173333332 -0.086666666 0
0.1599999964 -0.086666666 0
0.1466666608 -0.086666666 0
0.1333333404 -0.086666666 0
0.1199999972 -0.086666666 0
0.1066666692 -0.086666666 0
0.0933333336 -0.086666666 0
0.0799999984 -0.086666666 0
0.06666667 -0.086666666 0
0.0533333348 -0.086666666 0
0.03999999912 -0.086666666 0
0.02666666732 -0.086666666 0
0.01333333364 -0.086666666 0
0.0 -0.086666666 0
0.400000004 -0.1000000016 0
0.3866666556 -0.1000000016 0
0.3733333348 -0.1000000016 0
0.3600000144 -0.1000000016 0
0.346666664 -0.1000000016 0
0.3333333432 -0.1000000016 0
0.3199999928 -0.1000000016 0
0.3066666724 -0.1000000016 0
0.293333322 -0.1000000016 0
0.2800000012 -0.1000000016 0
0.2666666804 -0.1000000016 0
0.25333333 -0.1000000016 0
0.2399999948 -0.1000000016 0
0.226666674 -0.1000000016 0
0.2133333384 -0.1000000016 0
0.2000000028 -0.1000000016 0
0.1866666676 -0.1000000016 0
0.173333332 -0.1000000016 0
0.1599999964 -0.1000000016 0
0.1466666608 -0.1000000016 0
0.1333333404 -0.1000000016 0
0.1199999972 -0.1000000016 0
0.1066666692 -0.1000000016 0
0.0933333336 -0.1000000016 0
0.0799999984 -0.1000000016 0
0.06666667 -0.1000000016 0
0.0533333348 -0.1000000016 0
0.03999999912 -0.1000000016 0
0.02666666732 -0.1000000016 0
0.01333333364 -0.1000000016 0
0.0 -0.1000000016 0
0.400000004 -0.1133333372 0
0.3866666556 -0.1133333372 0
0.3733333348 -0.1133333372 0
0.3600000144 -0.1133333372 0
0.346666664 -0.1133333372 0
0.3333333432 -0.1133333372 0
0.3199999928 -0.1133333372 0
0.3066666724 -0.1133333372 0
0.293333322 -0.1133333372 0
0.2800000012 -0.1133333372 0
0.2666666804 -0.1133333372 0
0.25333333 -0.1133333372 0
0.2399999948 -0.1133333372 0
0.226666674 -0.1133333372 0
0.2133333384 -0.1133333372 0
0.2000000028 -0.1133333372 0
0.1866666676 -0.1133333372 0
0.173333332 -0.1133333372 0
0.1599999964 -0.1133333372 0
0.1466666608 -0.1133333372 0
0.1333333404 -0.1133333372 0
0.1199999972 -0.1133333372 0
0.1066666692 -0.1133333372 0
0.0933333336 -0.1133333372 0
0.0799999984 -0.1133333372 0
0.06666667 -0.1133333372 0
0.0533333348 -0.1133333372 0
0.03999999912 -0.1133333372 0
0.02666666732 -0.1133333372 0
0.01333333364 -0.1133333372 0
0.0 -0.1133333372 0
0.400000004 -0.1266666652 0
0.3866666556 -0.1266666652 0
0.3733333348 -0.1266666652 0
[...]
POINT_DATA 961
SCALARS Temp float 1
LOOKUP_TABLE default
0.6862323622291684
0.7136406877174457
0.7333098706949561
0.7476112872433284
0.7580900434718543
0.7658056531959557
0.7715124243007859
0.7757532787443838
0.7789233772315355
0.7813122587926793
0.7831345918750693
0.7845514972286615
0.7856861051465617
0.786635663109077
0.7874805697654966
0.788291541434814
0.7891361745917782
0.790084978486975
0.7912177127471226
0.7926306377113039
0.7944453442701426
0.7968203787912161
0.7999660614374281
0.8041655404789088
0.8098030581381388
0.8174040648675848
0.8276923704803587
0.8416737550725025
0.8607633251655743
0.8870148102178633
0.9236859420238595
0.7243052886806177
0.7511810861926214
0.7706390063650416
0.7848621371651195
0.7953049079710995
0.8030057431139207
0.8087080599786981
0.8129495973804136
0.8161228076701138
0.8185158206662928
0.8203425813218767
0.8217638700730956
0.8229026968456671
0.8238563065969046
0.8247051609474925
0.8255200777396722
0.8263687690314617
0.8273218590466468
0.8284592044423235
0.8298771191998657
0.8316971641483871
0.8340776947341606
0.8372285626791249
0.8414319352106393
0.847070154976699
0.8546650536898381
0.8649334875748284
0.8788668631151139
0.8978503604391506
0.9238341945817748
0.9596430977387955
2.5068442814938328
2.5108370767521775
2.5219651030456887
2.5322284281042284
2.540715293975994
2.547467597101035
2.5527543644305046
2.556866022052859
2.560060180922416
2.562550650207565
2.564510411268052
2.5660785468168714
2.567367750595822
2.5684713510816497
2.5694695621825265
2.5704350722886664
2.5714382422252804
2.5725522030622914
2.573858129233984
2.575451014658932
2.577446274399934
2.5799873904524535
2.5832547335578226
2.5874752142922555
2.5929312565798917
2.5999644927449594
2.6089609504502294
2.620278325262473
2.633971728847354
2.648815254332358
2.654144240139332
4.267168405623503
4.2693473027568976
4.274695124392476
4.28137735879557
4.287713004897561
4.293205714632523
4.297774839163238
4.301497262787517
4.304500139596863
4.306917478186262
4.308873589092016
4.310478138816172
4.311826359537819
4.313001477150481
4.314078001302856
4.3151253333515385
4.316211501931942
4.317406971170674
4.318788552113976
4.320443427777297
4.322473206089246
4.3249977183525266
4.328157731503083
4.3321148809729655
4.337044787620927
4.343114653932198
4.3504251974678345
4.358867151083834
4.367775993322223
4.374907846617302
4.3778136037283915
6.022293585005041
6.023453114087517
6.026586816599754
6.030829689481504
6.0353478967697844
6.039593075749397
6.043339528848234
6.046533967737654
6.04920711325559
6.051425795166152
6.0532687895576
6.054815325074262
6.0561403902032245
6.0573136536845995
6.058400254351208
6.059462570620085
6.060562495109538
6.061763921516312
6.063135254515988
6.064751721093417
6.066697124554512
6.0690644040344885
6.071953733624037
6.075465948667311
6.079686940051934
6.084655120190636
6.090297379792268
6.096310789522419
6.1019622689003254
6.106138075691902
6.107683489076934
7.774281760578313
7.774987935726412
7.776941886483289
7.7797393421757155
7.7829124113469295
7.786087854939192
7.789037759100797
7.791659289068931
7.793928684839193
7.7958665402998175
7.7975158092749295
7.798929026587912
7.800161525944107
7.801268353060413
7.8023033546392595
7.803319533504652
7.804370098309615
7.805509795100043
7.806796203087185
7.808290640969308
7.8100581929837105
7.812166107917882
7.814679300294268
7.817651039093554
7.8211056624098845
7.825008980145143
7.829221839138562
7.833438543862478
7.837159858026305
7.83976057497114
7.840700732001288
9.524158238545812
9.524607922723574
9.525875672554065
9.527749680943836
9.529965175816217
9.532280328646795
9.534519761047356
9.53658067734038
9.5384186900097
9.540028745656716
9.541429623634171
9.542653201813582
9.543737793414863
9.544724439103303
9.545655150584533
9.546572386414471
9.547519236789956
9.548539893520983
9.549680051582543
9.550986855554017
9.552507897039083
9.554288591490595
9.55636693663809
9.558764417121733
9.56147149272633
9.564426715094442
9.56749120053076
9.570429562585021
9.572918100742156
9.574602783032217
9.575200552221606
11.272375028304845
11.27266458488492
11.27348993165222
11.274735474828567
11.276248537079107
11.27787824460873
11.279502874253886
11.28104052704736
11.282446873881483
11.28370679267283
11.284825218871772
11.2858196197221
11.28671467869937
11.287538944680712
11.288322941128158
11.289098270912195
11.289897319865432
11.290753200525536
11.291699619765614
11.292770327982925
11.2939977398676
11.295410225738182
11.297027430029381
11.298853031843699
11.300864563062047
11.303001052216334
11.305151809194056
11.307153302965723
11.308803398653398
11.309897790472647
11.310281893730625
13.019156652702936
13.019335266671858
13.019848108197644
13.02063270315063
13.021603687238247
13.022672345651964
13.023762252896207
13.02481748218007
13.02580391076648
13.026706141122602
13.027522843490052
13.028262246297462
13.028938582731413
13.029569633992333
13.030175190692907
13.030776186874073
13.031394255104686
13.032051449875508
13.032769907088564
13.033571189961268
13.034475037926073
13.035497206279826
13.036646054794748
13.037917714295345
13.039289977814754
13.040715987853801
13.042120091272878
13.043399503563103
13.044435256788496
13.045113027288847
13.045349207352913
14.76461253740069
14.764705812813242
14.764975106385426
14.765391501268873
14.765914629117033
14.766501185435676
14.767112255374684
14.767717753526345
14.76829783452083
14.76884207333938
14.769347579118834
14.76981689617266
14.770256196976044
14.770673938817293
14.77107995304044
14.771484871482727
14.771899771743758
14.77233590855269
14.772804406678214
14.773315781738576
14.773879143791717
14.774500938963802
14.775183093664165
14.775920562234653
14.776698481614913
14.777489604257553
14.77825318754164
14.778936834699888
14.779482416247738
14.77983582245548
14.77995832473116
16.50879515603723
16.50881466461209
16.508871985176516
16.508963724119102
16.509084893165188
16.509229695803633
16.50939230377967
16.509567458297102
16.509750836987713
16.509939187865932
16.51013030132949
16.510322879524455
16.510516363581463
16.510710757423457
16.510906460835812
16.51110411726174
16.511304475241026
16.511508252289467
16.51171599222381
16.511927905669697
16.512143685450745
16.512362295937315
16.512581739518676
16.512798832612205
16.51300903226623
16.513206395239727
16.513383760214424
16.513533231976446
16.513646986376457
16.513718303004463
16.51374261540681
16.606110200544943
16.606126269623836
16.606173660782165
16.60625005514745
16.606351982505462
16.606475302002156
16.606615703290707
16.606769126690445
16.60693205724519
16.607101673318724
16.607275881902122
16.607453267282636
16.607632991317004
16.607814674307075
16.60799826824901
16.60818393079759
16.608371903533442
16.608562388923346
16.608755422530884
16.60895073609765
16.609147609289103
16.60934471471205
16.609539963358216
16.609730380151284
16.609912038488954
16.610080106053893
16.610229047546714
16.61035301337651
16.610446403377466
16.610504533078235
16.610524276131382
16.70332481188622
16.703338304956116
16.70337821432415
16.703442908982748
16.703529912558178
16.703636205942637
16.703758556571998
16.703893811020365
16.704039120038857
16.70419207300187
16.704350756138822
16.70451374346526
16.704680043434358
16.70484902141585
16.705020306714285
16.705193692541453
16.705369034655728
16.705546146577433
16.705724691644487
16.70590407141055
16.706083311734343
16.70626095340989
16.706434954687506
16.706602629834507
16.706760641465813
16.706905078589205
16.707031641142482
16.70713593801268
16.707213880823012
16.70726212170593
16.707278458299804
16.800443872578715
16.800455387772285
16.800489524356728
16.800545104652095
16.800620319014374
16.800712921350275
16.800820449321513
16.80094042870764
16.801070541983155
16.801208740060822
16.801353303851894
16.80150285562074
16.80165633363326
16.80181294352574
16.801972091939263
16.80213330972611
16.802296171012074
16.802460207961804
16.802624823651556
16.802789204768622
16.8029522371937
16.803112431639928
16.803267865319174
16.803416158227503
16.803554493509058
16.80367970105017
16.803788412117914
16.80387728311828
16.803943271847697
16.80398393039124
16.803997667338265
16.897471053547388
16.897481017361876
16.897510607705996
16.897558953164932
16.89762470099033
16.89770614630435
16.897801381855317
16.897908441625592
16.898025425964207
16.89815059057827
16.89828240293815
16.898419561965554
16.89856098885222
16.898705797873284
16.89885325019117
16.899002696548088
16.89915351487618
16.89930504355057
16.899456513684182
16.899606983205132
16.89975527630698
16.8998999348246
16.900039185753062
16.900170938911426
16.900292818717325
16.900402241563988
16.90049654023786
16.900573130479295
16.900629706256684
16.900664439167148
16.90067615227721
16.994409137766013
16.994417862458974
16.994443809471804
16.99448631875142
16.99454435654262
16.994616602493533
16.994701553126404
16.994797623527464
16.994903240022175
16.99501690944885
16.9951372675316
16.995263100629003
16.995393345472575
16.995527072803593
16.99566345608714
16.995801729886043
16.99594114330349
16.996080909458932
16.99622015464958
16.996357870198654
16.996492870458237
16.996623762544125
16.99674893042559
16.996866543905547
16.99697459307059
16.997070955259915
16.997153493099184
16.997220178265675
16.997269230816723
16.997299257190736
16.99730936792962
17.088153839109157
17.088161557190652
17.088184536205116
17.08822226480148
17.088273935825526
17.088338506090825
17.088414768939817
17.088501426856013
17.088597160232467
17.08870068066012
17.08881077102032
17.088926306312455
17.08904625803249
17.089169686154918
17.08929571869667
17.089423522356775
17.089552268912115
17.089681098231843
17.08980908139116
17.08993518671873
17.090058251811527
17.090176966077127
17.090289865162895
17.09039534530423
17.090491696218322
17.090577157071216
17.090649992945767
17.09070858701161
17.090751540950734
17.09077777195102
17.090786593961244
17.175578303872893
17.175585191953257
17.1756057179298
17.175639476926513
17.17568582537843
17.17574392269877
17.175812782883856
17.175891326817336
17.17597843354275
17.17607298104859
17.176173878930953
17.17628008709347
17.176390622325467
17.176504555662667
17.17662099976322
17.176739088943364
17.17685795584452
17.17697670534245
17.177094388799702
17.17720998112774
17.177322363154243
17.177430312938792
17.17753250646988
17.17762753400392
17.177713929633864
17.177790217205096
17.177854969749
17.177906878450013
17.17794482579795
17.177967954754678
17.17797572581582
17.25665185670045
17.25665805314511
17.256676530995147
17.256706962784396
17.256748824728135
17.256801426197647
17.256863946931627
17.256935475065376
17.257015045636564
17.257101671799674
17.257194371261654
17.257292182555844
17.257394172479376
17.257499436890235
17.257607093661612
17.25771626979475
17.25782608603221
17.25793563928848
17.258043985550074
17.258150125280636
17.258252993297205
17.25835145599244
17.258444315693144
17.258530327168664
17.258608223392404
17.25867675289319
17.258734725996387
17.258781066778702
17.258814866945897
17.25883543585063
17.258842341214823
17.33134599189777
17.331351607494415
17.33136836248037
17.331395986450012
17.331434044465738
17.331481958202968
17.331539033162294
17.331604486602803
17.33167747673803
17.33175712672246
17.331842546066344
17.331932844611792
17.332027140127735
17.332124561279798
17.33222424453846
17.33232532654821
17.332426934765067
17.33252817640163
17.332628127891134
17.332725826486897
17.332820265496373
17.332910395407083
17.332995130269055
17.33307336346422
17.333143989804142
17.333205935859638
17.333258196100516
17.33329987236817
17.333330214023032
17.333348654619137
17.33335484141733
17.399634330793297
17.39963945615178
17.39965475507007
17.39967999972707
17.399714821865082
17.399758728175357
17.399811120495258
17.399871316562166
17.399938572416705
17.40001210097772
17.400091089504006
17.400174711570845
17.40026213448182
17.40035252359191
17.400445041996967
17.400538846757875
17.400633084026783
17.40072688287792
17.40081934965871
17.400909564108776
17.400996578356253
17.401079420567513
17.40115710234431
17.40122863336614
17.401293040233895
17.401349391175213
17.40139682450019
17.40143457889775
17.40146202372987
17.40147868630436
17.401484273593482
17.461492606396416
17.461497317170043
17.461511383355447
17.461534609256216
17.46156667717232
17.46160715876347
17.46165553028454
17.461711188209698
17.461773466674547
17.46184165202284
17.461914997203817
17.461992732088575
17.462074070555648
17.462158215637423
17.462244361148862
17.46233169070558
17.46241937614285
17.462506574949245
17.46259242819481
17.462676059893706
17.46275657859966
17.462833082640365
17.462904667923105
17.462970441347586
17.463029536886854
17.46308113585389
17.463124489535133
17.463158942724874
17.463183956901492
17.46319913081259
17.46320421670992
17.516899035842886
17.516903396471008
17.516916420587876
17.51693793694166
17.516967666481566
17.5170052308896
17.51705016428338
17.517101925161764
17.51715991022025
17.517223465912032
17.517291900494754
17.5173644930084
17.51744049999605
17.517519161132107
17.517599702189028
17.51768133605633
17.51776326353961
17.51784467340984
17.5179247429083
17.51800263939984
17.518077523731574
17.518148556422535
17.518214905526836
17.51827575886421
17.518330337820686
17.518377914148452
17.518417828199002
17.51844950746449
17.51847248458397
17.518486413133637
17.51849107996754
17.56583363885029
17.565837705291123
17.5658498532372
17.565869930144302
17.565897686664123
17.56593278317181
17.565974798942005
17.566023241451017
17.566077557540527
17.566137142774526
17.566201351697856
17.566269505756406
17.566340899666805
17.566414807308938
17.566490485603737
17.566567176947455
17.56664411170577
17.566720510133656
17.566795584707346
17.566868543368553
17.566938594054612
17.56700495142912
17.567066844613137
17.56712352835222
17.567174294973334
17.567218488499208
17.567255519565023
17.567284880269046
17.56730615840979
17.56731904981923
17.5673233679181
17.608279174458115
17.6082829962112
17.608294414983604
17.608313292569648
17.608339402472055
17.608372435007077
17.608412004669912
17.608457657537578
17.608508880497226
17.608565108983758
17.60862573588912
17.608690118659936
17.608757585354336
17.60882744066293
17.60889897039698
17.60897144491011
17.609044122781235
17.60911625405142
17.60918708383052
17.609255856626532
17.609321821635056
17.60938423974597
17.609442391053605
17.609495585108974
17.60954317141098
17.60958455145877
17.609619191179295
17.609646633053398
17.609666507602576
17.609678543223282
17.609682573742163
17.64422028883705
17.644223910477642
17.64423473263581
17.64425262804203
17.64427738768508
17.64430872490937
17.644346281486325
17.644389633658268
17.64443829996181
17.644491747785437
17.644549401271288
17.64461064778373
17.64467484370114
17.644741320483956
17.64480938956388
17.6448783464434
17.64494747519821
17.645016052625696
17.645083352724818
17.645148651750915
17.645211233982813
17.645270398843145
17.645325468161342
17.645375795667007
17.64542077633712
17.64545985688379
17.645492546328537
17.64551842612842
17.64553715966286
17.645548500265416
17.645552297344764
17.67364423063702
17.67364769299909
17.67365804011523
17.67367515293243
17.67369883561376
17.673728818928435
17.673764765407814
17.67380627442769
17.67385288902531
17.673904101609036
17.673959361121117
17.674018079035417
17.67407963493492
17.67414338258165
17.67420865506285
17.674274769346532
17.67434103133692
17.674406740640524
17.674471195631597
17.674533698980074
17.674593563708406
17.674650120333823
17.674702723896065
17.674750762844845
17.674793667515885
17.674830919453697
17.674862060627795
17.674886702110076
17.674904532124582
17.674915322792426
17.674918935233823
17.696540509079423
17.696543850196612
17.69655383560731
17.696570352233408
17.696593213840032
17.696622163940816
17.69665688032259
17.696696979464793
17.696742022654842
17.696791521106157
17.696844942595803
17.69690171712224
17.696961242318526
17.697022889503717
17.697086008988087
17.69714993492635
17.69721399073494
17.69727749426391
17.69733976324279
17.697400121107382
17.697457903224482
17.697512464011638
17.69756318376531
17.69760947708799
17.69765080072628
17.69768666205529
17.697716627330134
17.69774032934355
17.697757474470706
17.697767848518932
17.697771321123653
17.71290082024907
17.712904076125465
17.712913807191555
17.712929904429625
17.71295218814123
17.712980410538737
17.713014259858642
17.71305336434983
17.713097297928194
17.713145584906336
17.713197706280923
17.713253105161574
17.71331119206812
17.713371350958905
17.71343294462925
17.713495319748574
17.71355781250136
17.71361975401118
17.713680476020357
17.71373931689535
17.713795627942762
17.713848780493826
17.713898172582354
17.713943237049634
17.713983448947488
17.714018333458615
17.714047473505012
17.714070516731045
17.714087181886374
17.714097264088544
17.714100638757238
17.722719374556434
17.72272257981927
17.722732159844163
17.72274800797077
17.722769948300023
17.722797738109453
17.7228310717349
17.722869584315738
17.722912857188852
17.72296042239799
17.723011768780825
17.723066347265746
17.723123576100267
17.723182846861743
17.723243529904106
17.723304979494134
17.7233665395735
17.723427549319418
17.723487348950115
17.723545285824017
17.723600720799688
17.723653035291996
17.723701637857232
17.723745972107363
17.72378552386038
17.723819828735408
17.723848479393173
17.723871132134683
17.723887512908274
17.723897422239723
17.723900738905495
17.72599260725745
17.7259957957363
17.72600532567134
17.72602109117527
17.726042917595645
17.72607056387349
17.726103726350075
17.726142042433946
17.726185095910164
17.726232421378626
17.726283510275877
17.72633781612853
17.726394759759057
17.726453735290026
17.72651411560559
17.726575257519084
17.726636507573186
17.726697207643888
17.726756700785387
17.72681433735847
17.72686948140334
17.72692151768514
17.726969858247816
17.727013950265203
17.727053283108425
17.72708739583501
17.727115884309324
17.7271384076766
17.727154694248036
17.727164546323305
17.727167843779355
