# vtk DataFile Version 2.0
Unstructured Grid Example
ASCII
DATASET UNSTRUCTURED_GRID

POINTS 961 float
0.400000004 0.01999999956 0
0.3866666556 0.01999999956 0
0.3733333348 0.01999999956 0
0.3600000144 0.01999999956 0
0.346666664 0.01999999956 0
0.3333333432 0.01999999956 0
0.3199999928 0.01999999956 0
0.3066666724 0.01999999956 0
0.293333322 0.01999999956 0
0.2800000012 0.01999999956 0
0.2666666804 0.01999999956 0
0.25333333 0.01999999956 0
0.2399999948 0.01999999956 0
0.226666674 0.01999999956 0
0.2133333384 0.01999999956 0
0.2000000028 0.01999999956 0
0.1866666676 0.01999999956 0
0.173333332 0.01999999956 0
0.1599999964 0.01999999956 0
0.1466666608 0.01999999956 0
0.1333333404 0.01999999956 0
0.1199999972 0.01999999956 0
0.1066666692 0.01999999956 0
0.0933333336 0.01999999956 0
0.0799999984 0.01999999956 0
0.06666667 0.01999999956 0
0.0533333348 0.01999999956 0
0.03999999912 0.01999999956 0
0.02666666732 0.01999999956 0
0.01333333364 0.01999999956 0
0.0 0.01999999956 0
0.400000004 0.00666666684 0
0.3866666556 0.00666666684 0
0.3733333348 0.00666666684 0
0.3600000144 0.00666666684 0
0.346666664 0.00666666684 0
0.3333333432 0.00666666684 0
0.3199999928 0.00666666684 0
0.3066666724 0.00666666684 0
0.293333322 0.00666666684 0
0.2800000012 0.00666666684 0
0.2666666804 0.00666666684 0
0.25333333 0.00666666684 0
0.2399999948 0.00666666684 0
0.226666674 0.00666666684 0
0.2133333384 0.00666666684 0
0.2000000028 0.00666666684 0
0.1866666676 0.00666666684 0
0.173333332 0.00666666684 0
0.1599999964 0.00666666684 0
0.1466666608 0.00666666684 0
0.1333333404 0.00666666684 0
0.1199999972 0.00666666684 0
0.1066666692 0.00666666684 0
0.0933333336 0.00666666684 0
0.0799999984 0.00666666684 0
0.06666667 0.00666666684 0
0.0533333348 0.00666666684 0
0.03999999912 0.00666666684 0
0.02666666732 0.00666666684 0
0.01333333364 0.00666666684 0
0.0 0.00666666684 0
0.400000004 -0.00666666684 0
0.3866666556 -0.00666666684 0
0.3733333348 -0.00666666684 0
0.3600000144 -0.00666666684 0
0.346666664 -0.00666666684 0
0.3333333432 -0.00666666684 0
0.3199999928 -0.00666666684 0
0.3066666724 -0.00666666684 0
0.293333322 -0.00666666684 0
0.2800000012 -0.00666666684 0
0.2666666804 -0.00666666684 0
0.25333333 -0.00666666684 0
0.2399999948 -0.00666666684 0
0.226666674 -0.00666666684 0
0.2133333384 -0.00666666684 0
0.2000000028 -0.00666666684 0
0.1866666676 -0.00666666684 0
0.173333332 -0.00666666684 0
0.1599999964 -0.00666666684 0
0.1466666608 -0.00666666684 0
0.1333333404 -0.00666666684 0
0.1199999972 -0.00666666684 0
0.1066666692 -0.00666666684 0
0.0933333336 -0.00666666684 0
0.0799999984 -0.00666666684 0
0.06666667 -0.00666666684 0
0.0533333348 -0.00666666684 0
0.03999999912 -0.00666666684 0
0.02666666732 -0.00666666684 0
0.01333333364 -0.00666666684 0
0.0 -0.00666666684 0
0.400000004 -0.01999999956 0
0.3866666556 -0.01999999956 0
0.3733333348 -0.01999999956 0
0.3600000144 -0.01999999956 0
0.346666664 -0.01999999956 0
0.3333333432 -0.01999999956 0
0.3199999928 -0.01999999956 0
0.3066666724 -0.01999999956 0
0.293333322 -0.01999999956 0
0.2800000012 -0.01999999956 0
0.2666666804 -0.01999999956 0
0.25333333 -0.01999999956 0
0.2399999948 -0.01999999956 0
0.226666674 -0.01999999956 0
0.2133333384 -0.01999999956 0
0.2000000028 -0.01999999956 0
0.1866666676 -0.01999999956 0
0.173333332 -0.01999999956 0
0.1599999964 -0.01999999956 0
0.1466666608 -0.01999999956 0
0.1333333404 -0.01999999956 0
0.1199999972 -0.01999999956 0
0.1066666692 -0.01999999956 0
0.0933333336 -0.01999999956 0
0.0799999984 -0.01999999956 0
0.06666667 -0.01999999956 0
0.0533333348 -0.01999999956 0
0.03999999912 -0.01999999956 0
0.02666666732 -0.01999999956 0
0.01333333364 -0.01999999956 0
0.0 -0.01999999956 0
0.400000004 -0.03333333508 0
0.3866666556 -0.03333333508 0
0.3733333348 -0.03333333508 0
0.3600000144 -0.03333333508 0
0.346666664 -0.03333333508 0
0.3333333432 -0.03333333508 0
0.3199999928 -0.03333333508 0
0.3066666724 -0.03333333508 0
0.293333322 -0.03333333508 0
0.2800000012 -0.03333333508 0
0.2666666804 -0.03333333508 0
0.25333333 -0.03333333508 0
0.2399999948 -0.03333333508 0
0.226666674 -0.03333333508 0
0.2133333384 -0.03333333508 0
0.2000000028 -0.03333333508 0
0.1866666676 -0.03333333508 0
0.173333332 -0.03333333508 0
0.1599999964 -0.03333333508 0
0.1466666608 -0.03333333508 0
0.1333333404 -0.03333333508 0
0.1199999972 -0.03333333508 0
0.1066666692 -0.03333333508 0
0.0933333336 -0.03333333508 0
0.0799999984 -0.03333333508 0
0.06666667 -0.03333333508 0
0.0533333348 -0.03333333508 0
0.03999999912 -0.03333333508 0
0.02666666732 -0.03333333508 0
0.01333333364 -0.03333333508 0
0.0 -0.03333333508 0
0.400000004 -0.0466666668 0
0.3866666556 -0.0466666668 0
0.3733333348 -0.0466666668 0
0.3600000144 -0.0466666668 0
0.346666664 -0.0466666668 0
0.3333333432 -0.0466666668 0
0.3199999928 -0.0466666668 0
0.3066666724 -0.0466666668 0
0.293333322 -0.0466666668 0
0.2800000012 -0.0466666668 0
0.2666666804 -0.0466666668 0
0.25333333 -0.0466666668 0
0.2399999948 -0.0466666668 0
0.226666674 -0.0466666668 0
0.2133333384 -0.0466666668 0
0.2000000028 -0.0466666668 0
0.1866666676 -0.0466666668 0
0.173333332 -0.0466666668 0
0.1599999964 -0.0466666668 0
0.1466666608 -0.0466666668 0
0.1333333404 -0.0466666668 0
0.1199999972 -0.0466666668 0
0.1066666692 -0.0466666668 0
0.0933333336 -0.0466666668 0
0.0799999984 -0.0466666668 0
0.06666667 -0.0466666668 0
0.0533333348 -0.0466666668 0
0.03999999912 -0.0466666668 0
0.02666666732 -0.0466666668 0
0.01333333364 -0.0466666668 0
0.0 -0.0466666668 0
0.400000004 -0.0599999988 0
0.3866666556 -0.0599999988 0
0.3733333348 -0.0599999988 0
0.3600000144 -0.0599999988 0
0.346666664 -0.0599999988 0
0.3333333432 -0.0599999988 0
0.3199999928 -0.0599999988 0
0.3066666724 -0.0599999988 0
0.293333322 -0.0599999988 0
0.2800000012 -0.0599999988 0
0.2666666804 -0.0599999988 0
0.25333333 -0.0599999988 0
0.2399999948 -0.0599999988 0
0.226666674 -0.0599999988 0
0.2133333384 -0.0599999988 0
0.2000000028 -0.0599999988 0
0.1866666676 -0.0599999988 0
0.173333332 -0.0599999988 0
0.1599999964 -0.0599999988 0
0.1466666608 -0.0599999988 0
0.1333333404 -0.0599999988 0
0.1199999972 -0.0599999988 0
0.1066666692 -0.0599999988 0
0.0933333336 -0.0599999988 0
0.0799999984 -0.0599999988 0
0.06666667 -0.0599999988 0
0.0533333348 -0.0599999988 0
0.03999999912 -0.0599999988 0
0.02666666732 -0.0599999988 0
0.01333333364 -0.0599999988 0
0.0 -0.0599999988 0
0.400000004 -0.0733333304 0
0.3866666556 -0.0733333304 0
0.3733333348 -0.0733333304 0
0.3600000144 -0.0733333304 0
0.346666664 -0.0733333304 0
0.3333333432 -0.0733333304 0
0.3199999928 -0.0733333304 0
0.3066666724 -0.0733333304 0
0.293333322 -0.0733333304 0
0.2800000012 -0.0733333304 0
0.2666666804 -0.0733333304 0
0.25333333 -0.0733333304 0
0.2399999948 -0.0733333304 0
0.226666674 -0.0733333304 0
0.2133333384 -0.0733333304 0
0.2000000028 -0.0733333304 0
0.1866666676 -0.0733333304 0
0.173333332 -0.0733333304 0
0.1599999964 -0.0733333304 0
0.1466666608 -0.0733333304 0
0.1333333404 -0.0733333304 0
0.1199999972 -0.0733333304 0
0.1066666692 -0.0733333304 0
0.0933333336 -0.0733333304 0
0.0799999984 -0.0733333304 0
0.06666667 -0.0733333304 0
0.0533333348 -0.0733333304 0
0.03999999912 -0.0733333304 0
0.02666666732 -0.0733333304 0
0.01333333364 -0.0733333304 0
0.0 -0.0733333304 0
0.400000004 -0.086666666 0
0.3866666556 -0.086666666 0
0.3733333348 -0.086666666 0
0.3600000144 -0.086666666 0
0.346666664 -0.086666666 0
0.3333333432 -0.086666666 0
0.3199999928 -0.086666666 0
0.3066666724 -0.086666666 0
0.293333322 -0.086666666 0
0.2800000012 -0.086666666 0
0.2666666804 -0.086666666 0
0.25333333 -0.086666666 0
0.2399999948 -0.086666666 0
0.226666674 -0.086666666 0
0.2133333384 -0.086666666 0
0.2000000028 -0.086666666 0
0.1866666676 -0.086666666 0
0.173333332 -0.086666666 0
0.1599999964 -0.086666666 0
0.1466666608 -0.086666666 0
0.1333333404 -0.086666666 0
0.1199999972 -0.086666666 0
0.1066666692 -0.086666666 0
0.0933333336 -0.086666666 0
0.0799999984 -0.086666666 0
0.06666667 -0.086666666 0
0.0533333348 -0.086666666 0
0.03999999912 -0.086666666 0
0.02666666732 -0.086666666 0
0.01333333364 -0.086666666 0
0.0 -0.086666666 0
0.400000004 -0.1000000016 0
0.3866666556 -0.1000000016 0
0.3733333348 -0.1000000016 0
0.3600000144 -0.1000000016 0
0.346666664 -0.1000000016 0
0.3333333432 -0.1000000016 0
0.3199999928 -0.1000000016 0
0.3066666724 -0.1000000016 0
0.293333322 -0.1000000016 0
0.2800000012 -0.1000000016 0
0.2666666804 -0.1000000016 0
0.25333333 -0.1000000016 0
0.2399999948 -0.1000000016 0
0.226666674 -0.1000000016 0
0.2133333384 -0.1000000016 0
0.2000000028 -0.1000000016 0
0.1866666676 -0.1000000016 0
0.173333332 -0.1000000016 0
0.1599999964 -0.1000000016 0
0.1466666608 -0.1000000016 0
0.1333333404 -0.1000000016 0
0.1199999972 -0.1000000016 0
0.1066666692 -0.1000000016 0
0.0933333336 -0.1000000016 0
0.0799999984 -0.1000000016 0
0.06666667 -0.1000000016 0
0.0533333348 -0.1000000016 0
0.03999999912 -0.1000000016 0
0.02666666732 -0.1000000016 0
0.01333333364 -0.1000000016 0
0.0 -0.1000000016 0
0.400000004 -0.1133333372 0
0.3866666556 -0.1133333372 0
0.3733333348 -0.1133333372 0
0.3600000144 -0.1133333372 0
0.346666664 -0.1133333372 0
0.3333333432 -0.1133333372 0
0.3199999928 -0.1133333372 0
0.3066666724 -0.1133333372 0
0.293333322 -0.1133333372 0
0.2800000012 -0.1133333372 0
0.2666666804 -0.1133333372 0
0.25333333 -0.1133333372 0
0.2399999948 -0.1133333372 0
0.226666674 -0.1133333372 0
0.2133333384 -0.1133333372 0
0.2000000028 -0.1133333372 0
0.1866666676 -0.1133333372 0
0.173333332 -0.1133333372 0
0.1599999964 -0.1133333372 0
0.1466666608 -0.1133333372 0
0.1333333404 -0.1133333372 0
0.1199999972 -0.1133333372 0
0.1066666692 -0.1133333372 0
0.0933333336 -0.1133333372 0
0.0799999984 -0.1133333372 0
0.06666667 -0.1133333372 0
0.0533333348 -0.1133333372 0
0.03999999912 -0.1133333372 0
0.02666666732 -0.1133333372 0
0.01333333364 -0.1133333372 0
0.0 -0.1133333372 0
0.400000004 -0.1266666652 0
0.3866666556 -0.1266666652 0
0.3733333348 -0.1266666652 0
[...]
POINT_DATA 961
SCALARS Temp float 1
LOOKUP_TABLE default
0.6868554890904074
0.714288702505064
0.7339757460615494
0.7482901491471697
0.7587784208882222
0.7665010371780571
0.7722129908390252
0.7764576968181619
0.7796306746349867
0.7820217262249731
0.7838457149540891
0.7852639078668537
0.7863995470535186
0.7873499682885042
0.7881956432155575
0.7890073523561094
0.7898527535545192
0.7908024200762266
0.7919361839630776
0.7933503929534285
0.7951667483394896
0.797543940449036
0.8006924804198762
0.8048957736305482
0.8105384112127592
0.8181463207554812
0.8284439693326207
0.8424380503495024
0.8615449553331402
0.8878202786596154
0.9245247103552826
0.7249629872873149
0.7518631891711586
0.7713387780953002
0.7855748243590793
0.796027078019467
0.8037349063350225
0.8094424017387941
0.8136877913279568
0.8168638838086488
0.8192590706243885
0.8210874909894275
0.8225100713250777
0.8236499332444129
0.8246044099960547
0.8254540362517946
0.8262696941479537
0.8271191572165659
0.8280731138001192
0.8292114930584014
0.8306306964202347
0.8324523950885039
0.8348350882958168
0.8379888183131746
0.842196008585061
0.8478393489433641
0.8554411449507142
0.8657189037780529
0.8796649321656562
0.898665668072077
0.9246730974518457
0.9605145175398793
2.5091205969645127
2.5131170180245386
2.5242551495605134
2.5345277950338057
2.5430223685702087
2.549780804640258
2.5550723744655124
2.559187767832529
2.5623848295929808
2.5648775630358
2.5668391065653253
2.568408669155496
2.5696990468448533
2.570803652820929
2.57180277379303
2.5727691641183723
2.573773248475463
2.5748882243033213
2.576195339709832
2.5777896748371543
2.5797867495167606
2.5823301760011397
2.5856004887881054
2.589824804473982
2.5952858034154525
2.6023254281373234
2.6113300568199085
2.622657709823255
2.6363635488432084
2.651220553790599
2.6565543788567636
4.271043165662476
4.273224041630415
4.2785767202244
4.285265023888957
4.2916064251220405
4.297104125130827
4.301677401816738
4.305403209256764
4.308408816963124
4.3108283551706235
4.3127862472446825
4.314392259215158
4.315741709678672
4.316917900041449
4.317995407548241
4.319043696511906
4.320130857277147
4.321327417891642
4.322710259087002
4.3243666429840015
4.326398269717531
4.328925079347437
4.332087966581126
4.336048713576075
4.3409831006206225
4.347058481990055
4.354375666668059
4.362825288258798
4.371742221850502
4.378880552269447
4.381788948311457
6.027762068265918
6.028922650683754
6.032059200028042
6.036305927766601
6.040828240756231
6.0450772783137054
6.048827137883196
6.0520244826985845
6.05470006143634
6.056920764480315
6.05876543937994
6.060313386646049
6.06163966277726
6.062813999690888
6.063901595280793
6.064964884516615
6.066065816127324
6.067268341737604
6.068640928048367
6.0702588702670095
6.0722060477128705
6.074575483834504
6.077467443610512
6.0809828538790685
6.085207683457584
6.090180379581995
6.095827766522849
6.101846639823667
6.107503253284363
6.11168285329439
6.113229670455287
7.781341117837002
7.782047934788597
7.7840036615092965
7.786803660213243
7.789979614548696
7.793157946499299
7.796110535204596
7.798734452459061
7.801005916608644
7.802945540157765
7.804596315842187
7.806010826089608
7.807244454744952
7.808352297398238
7.809388249532532
7.810405361983702
7.8114568916023845
7.812597634028257
7.813885220640465
7.815381025703543
7.817150192444304
7.819260030610467
7.821775513571198
7.824749958586336
7.828207725766286
7.832114593890879
7.836331283373861
7.84055182104121
7.844276517219424
7.846879597489065
7.847820608813398
9.532806551389099
9.533256644602695
9.534525547706851
9.53640126125571
9.53861877271081
9.540936033904918
9.543177507132382
9.54524030329287
9.54707999447195
9.5486915225782
9.550093683902384
9.551318385139002
9.552403974166758
9.55339152878019
9.55432309869125
9.555241180864776
9.55618890447859
9.557210501324086
9.558351707724322
9.559659710926352
9.56118214561226
9.562964468343562
9.565044711230346
9.567444378307451
9.570153920592
9.573111833834268
9.576179108142668
9.579120143253045
9.581610944655496
9.583297158856979
9.583895471565768
11.282610788547014
11.282900608902898
11.283726707649347
11.284973386016683
11.286487827987077
11.288119022702462
11.289745136389419
11.2912841956167
11.292691830912648
11.293952906337125
11.29507236168455
11.29606767991122
11.296963566748545
11.297788596831968
11.2985733211692
11.299349371152726
11.300149161846239
11.301005835678456
11.301953129955216
11.303024825549933
11.30425336642173
11.305667148493207
11.307285833888654
11.309113104913529
11.311126472920652
11.313264910964005
11.315417628320308
11.317420945382272
11.31907254365626
11.320167931788477
11.320552384685008
13.030978555810483
13.031157332964119
13.031670643147859
13.032455955470418
13.033427828071114
13.034497465510093
13.035588372799811
13.036644572252058
13.037631910013877
13.038534974423456
13.039352434353065
13.04009252552839
13.040769493874652
13.041401136543863
13.042007261918263
13.042608822842057
13.043227471319446
13.043885281659694
13.044604409659577
13.045406437915766
13.046311123590634
13.047334236102014
13.048484142638317
13.049756970348431
13.051130491952504
13.052557807270269
13.053963194350297
13.055243775253704
13.056280473938811
13.056958862877815
13.057195258405391
14.778019377969464
14.778112739233352
14.77838228078283
14.7787990594741
14.779322670242074
14.779909769183767
14.780521406003274
14.7811274678426
14.781708091159674
14.782252841298655
14.782758824583807
14.783228587436565
14.78366830772184
14.78408645018218
14.784492854855802
14.784898162995727
14.785313462019484
14.785750016635017
14.786218961474457
14.786730821471604
14.787294714731392
14.787917093018338
14.788599884288438
14.789338038114035
14.790116677767303
14.7909085308062
14.791672817481192
14.792357093335514
14.792903176012542
14.793256906584762
14.79337952125425
16.523785776065907
16.52380530367583
16.523862680236626
16.523954509012135
16.524075797126624
16.524220742706383
16.524383512078952
16.524558841522307
16.524742404569487
16.524930946086453
16.525122254249787
16.525315029795276
16.52550871309974
16.525703307831645
16.525899213872442
16.526097074976594
16.526297640087556
16.52650162709662
16.526709580041324
16.526921709471555
16.52713770767389
16.52735653783202
16.52757620028933
16.527793508357504
16.528003914764057
16.528201470697134
16.52837900818495
16.528528624718717
16.528642488945174
16.528713874280193
16.52873821008023
16.621189184704512
16.621205269712057
16.621252707900652
16.6213291782484
16.621431207317563
16.62155465039367
16.6216951930889
16.62184877188372
16.62201186845414
16.622181658403775
16.622356046605656
16.622533615826807
16.62271352691341
16.622895399561212
16.623079185452447
16.623265042108535
16.623453211049927
16.623643894647696
16.623837128221215
16.62403264299807
16.624229717728237
16.62442702356377
16.624622469364585
16.624813077135265
16.624994916509916
16.625163150606948
16.625312238948084
16.62543632650348
16.62552980792166
16.625587994405006
16.625607756723355
16.718492066327084
16.718505573017804
16.718545522715864
16.718610282887862
16.71869737483729
16.718803776612177
16.718926252583103
16.71906164630463
16.71920710576046
16.719360217933378
16.719519067092435
16.719682225718124
16.71984870110794
16.72001785778787
16.720189324449215
16.720362893833002
16.72053842128053
16.72071571985669
16.720894452310716
16.721074019376115
16.721253445759523
16.721431270674703
16.72160545027757
16.721773296173996
16.721931467745733
16.72207605026881
16.72220273962023
16.72230714056954
16.72238516092474
16.72243344970405
16.72244980250112
16.81569930782286
16.81571083488739
16.815745006697817
16.81580064445848
16.815875936805526
16.815968635499953
16.81607627583319
16.816196381176756
16.816326631714443
16.816464976288902
16.81660969402027
16.816759405673583
16.8169130482867
16.817069826498127
16.817229146124163
16.817390537298557
16.81755357346464
16.81771778606651
16.81788257734586
16.818047132965383
16.81821033751759
16.818370700099422
16.818526295928283
16.818674742608913
16.81881322051814
16.818938556477224
16.81904737853291
16.81913633992052
16.81920239556782
16.819243095260358
16.819256846096057
16.912814583358834
16.91282455769703
16.912854179322682
16.91290257598135
16.91296839361639
16.91304992569108
16.913145263081656
16.913252437816904
16.913369548326514
16.91349484851512
16.913626804221398
16.913764112926522
16.913905694567237
16.9140506623259
16.914198276395624
16.914347886623833
16.91449887006921
16.91465056419748
16.91480219911818
16.91495283160546
16.91510128449665
16.915246098027243
16.915385497323065
16.91551739006504
16.915639398295063
16.915748935865814
16.915843332973417
16.91592000287124
16.915976637322895
16.916011406185213
16.91602313140764
17.009840678314156
17.009849412483117
17.00987538770074
17.009917943263716
17.009976044393987
17.010048369424172
17.01013341336371
17.010229589682474
17.010335323072376
17.010449118785818
17.010569611055402
17.010695584864973
17.010825975690683
17.01095985312639
17.01109638957256
17.011234818575705
17.01137438823237
17.011514310622694
17.01165371092929
17.01179157924527
17.011926728542406
17.012057764381943
17.01218306899286
17.012300810263397
17.012408976225025
17.012505442084723
17.012588068350148
17.012654824709067
17.01270392948592
17.01273398776952
17.012744109243172
17.103670489330558
17.103678216057492
17.103701220831198
17.10373899178268
17.10379072093612
17.103855364034985
17.10393171317049
17.10401846946123
17.104114311886445
17.104217950624705
17.104328167185898
17.10444383526052
17.104563925105158
17.104687495520793
17.104813673401576
17.104941624351365
17.105070519052706
17.10519949625149
17.105327625840886
17.105453874881732
17.10557707959544
17.105695927894228
17.105808953808232
17.105914551850212
17.106011009941945
17.106096565434846
17.106169481649697
17.106228140132345
17.106271141172186
17.106297400885136
17.106306232543364
17.191174325112694
17.19118122116362
17.19120177090749
17.191235569044473
17.19128197133227
17.191340136292048
17.1914090768618
17.191487712749566
17.19157492175507
17.19166958059389
17.191770597592868
17.19187693141003
17.191987597621733
17.192101666084838
17.192218248304854
17.192336477457097
17.19245548503669
17.19257437474784
17.192692196736918
17.192807924637535
17.192920437925732
17.19302851323151
17.193130825039717
17.19322596204752
17.193312456762698
17.193388831464116
17.193453657691744
17.193505625278444
17.193543615570505
17.193566770658595
17.193574550492222
17.272321482516066
17.272327686377153
17.272346186355648
17.272376654629397
17.272418566841136
17.272471231600708
17.27253382773195
17.272605442338012
17.27268510934466
17.272771840745236
17.272864653063607
17.272962583645906
17.27306469810795
17.27317009113691
17.273277879443153
17.27338718886508
17.2734971389727
17.27360682548625
17.27371530316498
17.27382157120298
17.273924563100195
17.274023143886126
17.274116114485714
17.27420222824638
17.27428021672607
17.27434882708134
17.274406868353207
17.27445326347126
17.274487103182167
17.27450769611448
17.274514609538954
17.347083430042986
17.347089052597433
17.347105828353023
17.34713348659777
17.347171591898434
17.347219565265824
17.347276711393338
17.34734224661731
17.34741532814215
17.34749507805092
17.34758060474293
17.34767101692578
17.34776543122052
17.347862975138316
17.347962783989814
17.348063993251174
17.348165729197554
17.34826709784232
17.34836717439574
17.3484649948611
17.348559551268416
17.34864979280562
17.34873463221018
17.348812961556852
17.34888367437846
17.3489456960262
17.348998019844885
17.349039746683676
17.349070125081937
17.349088587978606
17.349094782253374
17.4154337651617
17.415438897096312
17.41545421565184
17.41547949273739
17.415514359656772
17.415558322509032
17.41561078240578
17.415671056245642
17.415738399140622
17.41581202301019
17.415891114062514
17.415974844785083
17.416062381366732
17.416152888028897
17.41624552671891
17.416339453334754
17.416433812851416
17.416527733150478
17.41662031937044
17.416710650026605
17.41679777601071
17.4168807242482
17.416958505105747
17.417030127050904
17.417094615516127
17.417151037629683
17.417198530700077
17.41723633254223
17.41726381180122
17.4172804952515
17.417286089536294
17.47734819894827
17.47735291597956
17.4773670008562
17.477390257639243
17.47742236823293
17.477462903759395
17.477511339809844
17.477567072084582
17.477629433853817
17.47769771052007
17.47777115403213
17.477848993214245
17.47793044086167
17.47801469889613
17.47810096000023
17.4781884066388
17.47827620948117
17.478363524836908
17.47844949258669
17.478533235548838
17.478613861080557
17.47869046632153
17.478762146010336
17.478828005913574
17.47888717892475
17.47893884535256
17.478982255577797
17.479016753611575
17.479041800294734
17.4790569939032
17.47906208639891
17.532804928867005
17.532809295487198
17.532822337505532
17.53284388344813
17.532873653900722
17.53291127004925
17.532956265395214
17.533008097713964
17.533066162885515
17.533129806468647
17.53319833576229
17.533271028795006
17.53334714105559
17.53342591113081
17.533506563679193
17.533588310455272
17.533670351114008
17.533751873264855
17.53383205298175
17.533910056462474
17.533985043394893
17.5340561731567
17.53412261268966
17.534183548745357
17.53423820170191
17.534285842382417
17.534325810307678
17.53435753225678
17.53438054029191
17.534394487564555
17.534399160668638
17.58178395660367
17.581788028815982
17.581800194007062
17.5818202994261
17.58184809538574
17.581883241796742
17.581925317354195
17.58197382885005
17.582028222349926
17.582087892561105
17.582152193104164
17.582220444443912
17.582291940268664
17.582365953392642
17.58244173964172
17.582518540294316
17.582595584582624
17.582672091618907
17.582747272734473
17.582820334731363
17.58289048442133
17.582956935367157
17.583018915624788
17.583075678924846
17.583126516643922
17.583170771935166
17.58320785466156
17.58323725626254
17.58325856400634
17.583271473336104
17.583275797435036
17.624268025652242
17.624271852995246
17.62428328847192
17.624302193681686
17.624328341806812
17.624361422723265
17.62440105037482
17.62444677018457
17.624498068294592
17.624554379313288
17.624615095236553
17.624679572555493
17.624747138322594
17.624817096182866
17.624888730870545
17.62496131163839
17.625034095948966
17.6251063327192
17.625177265935225
17.6252461389904
17.625312199984236
17.625374708740214
17.625432944326686
17.625486215322915
17.625533870323327
17.625575310004322
17.625609999566233
17.625637480872975
17.625657383951523
17.62566943683684
17.62567347313526
17.66024176834665
17.66024539543
17.660256233853996
17.660274156163005
17.660298953039344
17.660330337405455
17.660367950502838
17.660411367943315
17.660460107542647
17.660513635886694
17.660571376244288
17.66063271504539
17.660697007682014
17.660763584586547
17.660831756129912
17.660900816729445
17.660970049360415
17.66103872971314
17.661106130681947
17.661171527429357
17.661234203163247
17.66129345626836
17.66134860758
17.661399009890502
17.66144405730856
17.661483195760034
17.661515933575014
17.66154185162575
17.66156061282437
17.661571970163724
17.661575772845197
17.689692421854502
17.689695889543124
17.68970625257866
17.689723391728542
17.68974711085979
17.689777140333355
17.6898131421668
17.689854715123207
17.689901401537472
17.68995269303383
17.690008037699137
17.69006684608975
17.690128496818048
17.690192342632706
17.690257715574113
17.690323931538764
17.690390295344304
17.690456105504975
17.69052065930662
17.69058325834463
17.69064321459104
17.690699857548136
17.690752541286706
17.690800653346088
17.690843623221603
17.69088093169943
17.69091212008432
17.690936798887545
17.690954655886298
17.69096546287651
17.690969080780782
17.7126094859555
17.71261283231131
17.71262283337927
17.71263937590639
17.712662273369265
17.712691268883162
17.712726039732885
17.71276620179814
17.712811315677634
17.712860891814493
17.712914397143837
17.71297126075957
17.71303087933641
17.713092623191635
17.713155841599857
17.71321986765524
17.713284023698943
17.713347626500678
17.71340999271455
17.713470444716187
17.713528316837923
17.71358296249992
17.71363376104872
17.713680126196603
17.71372151387045
17.71375743070758
17.713787442317873
17.713811180951048
17.71382835255024
17.713838742608818
17.71384222057162
17.72898464926323
17.72898791031674
17.728997656856635
17.72901377969349
17.729036098845395
17.729064366133077
17.72909826929897
17.729137436001103
17.729181439476037
17.729229803275615
17.729282007563988
17.729337494555317
17.72939567381984
17.72945592832251
17.72951761983108
17.729580093962525
17.729642685834303
17.729704725498383
17.729765543631114
17.729824477549105
17.729880877535876
17.72993411393768
17.729983583851705
17.730028719243016
17.730068994357996
17.730103933655606
17.730133119425943
17.73015619878233
17.730172890052437
17.730182988047446
17.73018636800118
17.738812116982253
17.7388153273858
17.738824922775905
17.73884079632233
17.738862771845493
17.738890606235152
17.738923993337718
17.738962567706892
17.7390059100057
17.739053551522712
17.73910498026869
17.739159646281962
17.739216966865683
17.739276332608892
17.739337112842858
17.739398660786858
17.739460319320578
17.73952142655496
17.739581321647943
17.739639350914363
17.739694874196505
17.739747271931627
17.739795951747276
17.739840356387436
17.73987997087299
17.739914330107574
17.739943026127747
17.73996571471044
17.73998212138782
17.739992046383684
17.739995368291382
17.742088321163145
17.742091514770653
17.742101060034948
17.74211685089943
17.74213871243211
17.742166403187497
17.742199619018965
17.742237996751058
17.742281119496816
17.742328521102785
17.742379692180442
17.742434085368146
17.742491120545758
17.74255019084919
17.742610668141623
17.74267190819051
17.742733256478267
17.742794053816375
17.742853642200682
17.742911370950456
17.74296660309188
17.743018722414945
17.74306714003745
17.743111302267952
17.743150697683262
17.743184864628088
17.743213398345183
17.743235957457987
17.743252269863433
17.74326213756065
17.743265440244368
