# vtk DataFile Version 2.0
Unstructured Grid Example
ASCII
DATASET UNSTRUCTURED_GRID

POINTS 961 float
0.400000004 0.01999999956 0
0.3866666556 0.01999999956 0
0.3733333348 0.01999999956 0
0.3600000144 0.01999999956 0
0.346666664 0.01999999956 0
0.3333333432 0.01999999956 0
0.3199999928 0.01999999956 0
0.3066666724 0.01999999956 0
0.293333322 0.01999999956 0
0.2800000012 0.01999999956 0
0.2666666804 0.01999999956 0
0.25333333 0.01999999956 0
0.2399999948 0.01999999956 0
0.226666674 0.01999999956 0
0.2133333384 0.01999999956 0
0.2000000028 0.01999999956 0
0.1866666676 0.01999999956 0
0.173333332 0.01999999956 0
0.1599999964 0.01999999956 0
0.1466666608 0.01999999956 0
0.1333333404 0.01999999956 0
0.1199999972 0.01999999956 0
0.1066666692 0.01999999956 0
0.0933333336 0.01999999956 0
0.0799999984 0.01999999956 0
0.06666667 0.01999999956 0
0.0533333348 0.01999999956 0
0.03999999912 0.01999999956 0
0.02666666732 0.01999999956 0
0.01333333364 0.01999999956 0
0.0 0.01999999956 0
0.400000004 0.00666666684 0
0.3866666556 0.00666666684 0
0.3733333348 0.00666666684 0
0.3600000144 0.00666666684 0
0.346666664 0.00666666684 0
0.3333333432 0.00666666684 0
0.3199999928 0.00666666684 0
0.3066666724 0.00666666684 0
0.293333322 0.00666666684 0
0.2800000012 0.00666666684 0
0.2666666804 0.00666666684 0
0.25333333 0.00666666684 0
0.2399999948 0.00666666684 0
0.226666674 0.00666666684 0
0.2133333384 0.00666666684 0
0.2000000028 0.00666666684 0
0.1866666676 0.00666666684 0
0.173333332 0.00666666684 0
0.1599999964 0.00666666684 0
0.1466666608 0.00666666684 0
0.1333333404 0.00666666684 0
0.1199999972 0.00666666684 0
0.1066666692 0.00666666684 0
0.0933333336 0.00666666684 0
0.0799999984 0.00666666684 0
0.06666667 0.00666666684 0
0.0533333348 0.00666666684 0
0.03999999912 0.00666666684 0
0.02666666732 0.00666666684 0
0.01333333364 0.00666666684 0
0.0 0.00666666684 0
0.400000004 -0.00666666684 0
0.3866666556 -0.00666666684 0
0.3733333348 -0.00666666684 0
0.3600000144 -0.00666666684 0
0.346666664 -0.00666666684 0
0.3333333432 -0.00666666684 0
0.3199999928 -0.00666666684 0
0.3066666724 -0.00666666684 0
0.293333322 -0.00666666684 0
0.2800000012 -0.00666666684 0
0.2666666804 -0.00666666684 0
0.25333333 -0.00666666684 0
0.2399999948 -0.00666666684 0
0.226666674 -0.00666666684 0
0.2133333384 -0.00666666684 0
0.2000000028 -0.00666666684 0
0.1866666676 -0.00666666684 0
0.173333332 -0.00666666684 0
0.1599999964 -0.00666666684 0
0.1466666608 -0.00666666684 0
0.1333333404 -0.00666666684 0
0.1199999972 -0.00666666684 0
0.1066666692 -0.00666666684 0
0.0933333336 -0.00666666684 0
0.0799999984 -0.00666666684 0
0.06666667 -0.00666666684 0
0.0533333348 -0.00666666684 0
0.03999999912 -0.00666666684 0
0.02666666732 -0.00666666684 0
0.01333333364 -0.00666666684 0
0.0 -0.00666666684 0
0.400000004 -0.01999999956 0
0.3866666556 -0.01999999956 0
0.3733333348 -0.01999999956 0
0.3600000144 -0.01999999956 0
0.346666664 -0.01999999956 0
0.3333333432 -0.01999999956 0
0.3199999928 -0.01999999956 0
0.3066666724 -0.01999999956 0
0.293333322 -0.01999999956 0
0.2800000012 -0.01999999956 0
0.2666666804 -0.01999999956 0
0.25333333 -0.01999999956 0
0.2399999948 -0.01999999956 0
0.226666674 -0.01999999956 0
0.2133333384 -0.01999999956 0
0.2000000028 -0.01999999956 0
0.1866666676 -0.01999999956 0
0.173333332 -0.01999999956 0
0.1599999964 -0.01999999956 0
0.1466666608 -0.01999999956 0
0.1333333404 -0.01999999956 0
0.1199999972 -0.01999999956 0
0.1066666692 -0.01999999956 0
0.0933333336 -0.01999999956 0
0.0799999984 -0.01999999956 0
0.06666667 -0.01999999956 0
0.0533333348 -0.01999999956 0
0.03999999912 -0.01999999956 0
0.02666666732 -0.01999999956 0
0.01333333364 -0.01999999956 0
0.0 -0.01999999956 0
0.400000004 -0.03333333508 0
0.3866666556 -0.03333333508 0
0.3733333348 -0.03333333508 0
0.3600000144 -0.03333333508 0
0.346666664 -0.03333333508 0
0.3333333432 -0.03333333508 0
0.3199999928 -0.03333333508 0
0.3066666724 -0.03333333508 0
0.293333322 -0.03333333508 0
0.2800000012 -0.03333333508 0
0.2666666804 -0.03333333508 0
0.25333333 -0.03333333508 0
0.2399999948 -0.03333333508 0
0.226666674 -0.03333333508 0
0.2133333384 -0.03333333508 0
0.2000000028 -0.03333333508 0
0.1866666676 -0.03333333508 0
0.173333332 -0.03333333508 0
0.1599999964 -0.03333333508 0
0.1466666608 -0.03333333508 0
0.1333333404 -0.03333333508 0
0.1199999972 -0.03333333508 0
0.1066666692 -0.03333333508 0
0.0933333336 -0.03333333508 0
0.0799999984 -0.03333333508 0
0.06666667 -0.03333333508 0
0.0533333348 -0.03333333508 0
0.03999999912 -0.03333333508 0
0.02666666732 -0.03333333508 0
0.01333333364 -0.03333333508 0
0.0 -0.03333333508 0
0.400000004 -0.0466666668 0
0.3866666556 -0.0466666668 0
0.3733333348 -0.0466666668 0
0.3600000144 -0.0466666668 0
0.346666664 -0.0466666668 0
0.3333333432 -0.0466666668 0
0.3199999928 -0.0466666668 0
0.3066666724 -0.0466666668 0
0.293333322 -0.0466666668 0
0.2800000012 -0.0466666668 0
0.2666666804 -0.0466666668 0
0.25333333 -0.0466666668 0
0.2399999948 -0.0466666668 0
0.226666674 -0.0466666668 0
0.2133333384 -0.0466666668 0
0.2000000028 -0.0466666668 0
0.1866666676 -0.0466666668 0
0.173333332 -0.0466666668 0
0.1599999964 -0.0466666668 0
0.1466666608 -0.0466666668 0
0.1333333404 -0.0466666668 0
0.1199999972 -0.0466666668 0
0.1066666692 -0.0466666668 0
0.0933333336 -0.0466666668 0
0.0799999984 -0.0466666668 0
0.06666667 -0.0466666668 0
0.0533333348 -0.0466666668 0
0.03999999912 -0.0466666668 0
0.02666666732 -0.0466666668 0
0.01333333364 -0.0466666668 0
0.0 -0.0466666668 0
0.400000004 -0.0599999988 0
0.3866666556 -0.0599999988 0
0.3733333348 -0.0599999988 0
0.3600000144 -0.0599999988 0
0.346666664 -0.0599999988 0
0.3333333432 -0.0599999988 0
0.3199999928 -0.0599999988 0
0.3066666724 -0.0599999988 0
0.293333322 -0.0599999988 0
0.2800000012 -0.0599999988 0
0.2666666804 -0.0599999988 0
0.25333333 -0.0599999988 0
0.2399999948 -0.0599999988 0
0.226666674 -0.0599999988 0
0.2133333384 -0.0599999988 0
0.2000000028 -0.0599999988 0
0.1866666676 -0.0599999988 0
0.173333332 -0.0599999988 0
0.1599999964 -0.0599999988 0
0.1466666608 -0.0599999988 0
0.1333333404 -0.0599999988 0
0.1199999972 -0.0599999988 0
0.1066666692 -0.0599999988 0
0.0933333336 -0.0599999988 0
0.0799999984 -0.0599999988 0
0.06666667 -0.0599999988 0
0.0533333348 -0.0599999988 0
0.03999999912 -0.0599999988 0
0.02666666732 -0.0599999988 0
0.01333333364 -0.0599999988 0
0.0 -0.0599999988 0
0.400000004 -0.0733333304 0
0.3866666556 -0.0733333304 0
0.3733333348 -0.0733333304 0
0.3600000144 -0.0733333304 0
0.346666664 -0.0733333304 0
0.3333333432 -0.0733333304 0
0.3199999928 -0.0733333304 0
0.3066666724 -0.0733333304 0
0.293333322 -0.0733333304 0
0.2800000012 -0.0733333304 0
0.2666666804 -0.0733333304 0
0.25333333 -0.0733333304 0
0.2399999948 -0.0733333304 0
0.226666674 -0.0733333304 0
0.2133333384 -0.0733333304 0
0.2000000028 -0.0733333304 0
0.1866666676 -0.0733333304 0
0.173333332 -0.0733333304 0
0.1599999964 -0.0733333304 0
0.1466666608 -0.0733333304 0
0.1333333404 -0.0733333304 0
0.1199999972 -0.0733333304 0
0.1066666692 -0.0733333304 0
0.0933333336 -0.0733333304 0
0.0799999984 -0.0733333304 0
0.06666667 -0.0733333304 0
0.0533333348 -0.0733333304 0
0.03999999912 -0.0733333304 0
0.02666666732 -0.0733333304 0
0.01333333364 -0.0733333304 0
0.0 -0.0733333304 0
0.400000004 -0.086666666 0
0.3866666556 -0.086666666 0
0.3733333348 -0.086666666 0
0.3600000144 -0.086666666 0
0.346666664 -0.086666666 0
0.3333333432 -0.086666666 0
0.3199999928 -0.086666666 0
0.3066666724 -0.086666666 0
0.293333322 -0.086666666 0
0.2800000012 -0.086666666 0
0.2666666804 -0.086666666 0
0.25333333 -0.086666666 0
0.2399999948 -0.086666666 0
0.226666674 -0.086666666 0
0.2133333384 -0.086666666 0
0.2000000028 -0.086666666 0
0.1866666676 -0.086666666 0
0.173333332 -0.086666666 0
0.1599999964 -0.086666666 0
0.1466666608 -0.086666666 0
0.1333333404 -0.086666666 0
0.1199999972 -0.086666666 0
0.1066666692 -0.086666666 0
0.0933333336 -0.086666666 0
0.0799999984 -0.086666666 0
0.06666667 -0.086666666 0
0.0533333348 -0.086666666 0
0.03999999912 -0.086666666 0
0.02666666732 -0.086666666 0
0.01333333364 -0.086666666 0
0.0 -0.086666666 0
0.400000004 -0.1000000016 0
0.3866666556 -0.1000000016 0
0.3733333348 -0.1000000016 0
0.3600000144 -0.1000000016 0
0.346666664 -0.1000000016 0
0.3333333432 -0.1000000016 0
0.3199999928 -0.1000000016 0
0.3066666724 -0.1000000016 0
0.293333322 -0.1000000016 0
0.2800000012 -0.1000000016 0
0.2666666804 -0.1000000016 0
0.25333333 -0.1000000016 0
0.2399999948 -0.1000000016 0
0.226666674 -0.1000000016 0
0.2133333384 -0.1000000016 0
0.2000000028 -0.1000000016 0
0.1866666676 -0.1000000016 0
0.173333332 -0.1000000016 0
0.1599999964 -0.1000000016 0
0.1466666608 -0.1000000016 0
0.1333333404 -0.1000000016 0
0.1199999972 -0.1000000016 0
0.1066666692 -0.1000000016 0
0.0933333336 -0.1000000016 0
0.0799999984 -0.1000000016 0
0.06666667 -0.1000000016 0
0.0533333348 -0.1000000016 0
0.03999999912 -0.1000000016 0
0.02666666732 -0.1000000016 0
0.01333333364 -0.1000000016 0
0.0 -0.1000000016 0
0.400000004 -0.1133333372 0
0.3866666556 -0.1133333372 0
0.3733333348 -0.1133333372 0
0.3600000144 -0.1133333372 0
0.346666664 -0.1133333372 0
0.3333333432 -0.1133333372 0
0.3199999928 -0.1133333372 0
0.3066666724 -0.1133333372 0
0.293333322 -0.1133333372 0
0.2800000012 -0.1133333372 0
0.2666666804 -0.1133333372 0
0.25333333 -0.1133333372 0
0.2399999948 -0.1133333372 0
0.226666674 -0.1133333372 0
0.2133333384 -0.1133333372 0
0.2000000028 -0.1133333372 0
0.1866666676 -0.1133333372 0
0.173333332 -0.1133333372 0
0.1599999964 -0.1133333372 0
0.1466666608 -0.1133333372 0
0.1333333404 -0.1133333372 0
0.1199999972 -0.1133333372 0
0.1066666692 -0.1133333372 0
0.0933333336 -0.1133333372 0
0.0799999984 -0.1133333372 0
0.06666667 -0.1133333372 0
0.0533333348 -0.1133333372 0
0.03999999912 -0.1133333372 0
0.02666666732 -0.1133333372 0
0.01333333364 -0.1133333372 0
0.0 -0.1133333372 0
0.400000004 -0.1266666652 0
0.3866666556 -0.1266666652 0
0.3733333348 -0.1266666652 0
[...]
POINT_DATA 961
SCALARS Temp float 1
LOOKUP_TABLE default
1.75213021159089
1.8248988664708587
1.8828227642265378
1.929765725504567
1.9679762721980911
1.9990829652451927
2.0243533448120834
2.044816708909581
2.061336988797262
2.0746532855461712
2.0854091568428013
2.0941715052531538
2.1014459937324186
2.1076927027158465
2.113340743919831
2.11880315643452
2.124493710278557
2.1308440512814846
2.1383217397273784
2.147449036597817
2.1588222855270596
2.1731330378487925
2.1911893391885147
2.213942725644908
2.242519795478268
2.278266826778434
2.322815935069223
2.378190075071098
2.4469878855963594
2.532736151417205
2.6415855230079486
1.797265401407753
1.8681317995937174
1.9255016309930262
1.9721751907439307
2.010238873289469
2.041264180525617
2.066491338657243
2.0869350757944267
2.1034506854603237
2.116771904806761
2.1275388241222015
2.1363160995351667
2.143607978294453
2.1498736669542886
2.155541765154812
2.1610250309717234
2.166737038636412
2.1731092014886046
2.1806086739467148
2.1897569767314606
2.2011491831442602
2.215474748330344
2.233538429696707
2.2562866083875663
2.2848377999519354
2.3205252309506874
2.364958803291599
2.420120343130138
2.488518535785285
2.5734714033438166
2.6791660610347487
3.8705126540920127
3.882673265627231
3.916432326222564
3.95044278776371
3.981186607806401
4.007875408616412
4.030577153477645
4.049648535204075
4.065544756095477
4.078744719436328
4.08972025009026
4.098923707653588
4.1067849319456124
4.113713754254238
4.120105943534652
4.126351585209532
4.1328452477889694
4.139997205823702
4.1482449829531465
4.158064513756308
4.169980094536026
4.184571942021426
4.202479588334894
4.2243982922825
4.251061831632761
4.283197016546436
4.321411530748266
4.365905101498347
4.41561299121627
4.465367416269631
4.483304560619218
5.85996435972697
5.86693083644236
5.884571367262778
5.907592669343422
5.930972894636436
5.952763575061679
5.972233667665831
5.989217092792536
6.003819903094051
6.016282188875344
6.026909115801418
6.036034915885207
6.044004605604159
6.051165969585096
6.057867665618097
6.064461256834948
6.071305697745751
6.078772919496959
6.087253379143706
6.097160281330494
6.108930855563793
6.123022567358514
6.139900482749293
6.160010162002289
6.183723904363019
6.211236585260879
6.242357307527057
6.27606565041379
6.309525382181899
6.335294850907593
6.3455037449509195
7.810721765784426
7.814732057739391
7.82574184625755
7.841173077650213
7.858407693916353
7.875555351533269
7.891622114473593
7.906158485473745
7.919035100067955
7.930308511472605
7.940143170984814
7.948765383917541
7.956436472887084
7.963437812095179
7.9700631747709405
7.976615735952869
7.983407862714352
7.990762005958043
7.999011245612016
8.008497861299109
8.01956791112075
8.032559160393495
8.047777989860856
8.065459035562805
8.085695693605064
8.108321658320179
8.13270765802255
8.157420235764095
8.179688185712807
8.195645125343765
8.201469136106986
9.730483399098038
9.733076709851833
9.740349152562198
9.751030396663742
9.76359726963452
9.776746303675917
9.78957751173087
9.80157318794903
9.812491192683458
9.82227401305479
9.830984105529186
9.838760299857292
9.845789481764806
9.852288850261658
9.85849513795143
9.864658397465032
9.871038515758936
9.87790272408306
9.885522572754468
9.8941686664003
9.904101104254423
9.915553049260826
9.928703541042678
9.943634710425991
9.960265618482211
9.978253562188481
9.996855498953654
10.014763706974472
10.030068716155782
10.040527403339633
10.044263785041009
11.624682145848553
11.626419990015547
11.631369593229266
11.638834215630643
11.647915906226567
11.65775079797104
11.667656890030804
11.677174498738701
11.686042400469129
11.69415160901458
11.70150234094056
11.708169990535001
11.714280454199232
11.719993155136601
11.72548964324984
11.730966048692379
11.736627878686697
11.742685619196152
11.749349738875946
11.756823546439854
11.765292107456528
11.774905142792468
11.785751120894759
11.797819883356379
11.810950755878526
11.824766331665947
11.838601115053738
11.851462115705132
11.86208541046386
11.869152400842493
11.871637668354621
13.497684232909723
13.498848903772698
13.502196095260285
13.507329354814827
13.513711767202604
13.520790234039225
13.528089183744711
13.535255768137688
13.54206475203591
13.548401085912332
13.554235824691853
13.55960326976664
13.564582401019662
13.56928297629621
13.573835455596821
13.578383756393194
13.583079780891712
13.588078518082693
13.593532595173384
13.599585044558491
13.606358923331767
13.613942362698012
13.622367418406716
13.631581904425786
13.641414344518573
13.651536444091462
13.661435283798731
13.67041788024604
13.677676001930921
13.682423060325622
13.68407728548321
15.353624693089014
15.35436434808459
15.356502557854594
15.359817741205976
15.36400062437517
15.368718543502887
15.373669840319335
15.378616448055872
15.383394848371408
15.387911729786808
15.392132496590703
15.396067975112885
15.399762380334584
15.403283605144656
15.406715725455514
15.410153277470236
15.413696682382408
15.417448019554636
15.421506378328306
15.425961948983659
15.430887969535636
15.436329713137457
15.44228976187308
15.448709744875853
15.455449836841115
15.462270503283557
15.468824808439315
15.474672964327914
15.47932926857192
15.48234139044062
15.483384869225223
17.196634239525647
17.197027629125703
17.198169856402473
17.199955813858235
17.202236004097294
17.20484519718542
17.20762829524942
17.21045767314829
17.213240974242048
17.215921200397357
17.21847245419701
17.22089391294591
17.223203816256458
17.22543427854221
17.22762704410605
17.229830060264085
17.23209460000198
17.23447253326793
17.237013358109763
17.239760567954992
17.24274692952006
17.245988331379486
17.249475964252586
17.25316721982673
17.2569763528951
17.260767534950045
17.26435435237575
17.267510491488288
17.26999474572812
17.27158863829519
17.272138440217315
19.03090960739879
19.030992828098473
19.03123787903912
19.031631693127743
19.032154817816313
19.032784215704652
19.03349613709056
19.034268487191273
19.035082452274796
19.035923313483174
19.03678064228866
19.03764803074998
19.038522553257636
19.039404101478052
19.04029464873225
19.041197486050724
19.04211645191586
19.04305513554753
19.04401604534854
19.04499972985839
19.046003848531416
19.047022222261514
19.048043904240558
19.049052427532914
19.050025389174483
19.05093466965492
19.051747578114703
19.052429142238687
19.052945532300125
19.05326821258967
19.053378025405216
19.132980864521006
19.13304926477298
19.13325127378485
19.13357777725341
19.134015001022938
19.13454627020537
19.13515390340207
19.135820880877343
19.13653211350922
19.137275199927895
19.138040754403914
19.1388223611327
19.139616275602116
19.140420974730777
19.141236601092352
19.142064345529786
19.142905800506135
19.143762280740734
19.14463411985256
19.145519948701637
19.146415970254303
19.147315273088356
19.148207228578087
19.149077103840753
19.149905996221865
19.15067127580708
19.151347672997034
19.15190907377212
19.152330935604
19.152593017462014
19.152681939074952
19.234683946251774
19.234740850859275
19.23490929104449
19.235182734966767
19.235551192942133
19.236002358108784
19.236522882387632
19.23709955662229
19.237720276710334
19.238374685622087
19.239054524103437
19.239753695104753
19.2404681125537
19.241195403359853
19.241934494135492
19.242685122444186
19.24344730787041
19.244220789091834
19.245004445753956
19.24579572152482
19.24659007173941
19.24738047979865
19.248157081800514
19.24890700292005
19.249614467214595
19.250261292612638
19.25082782547876
19.251294311327165
19.25164260622111
19.25185801054773
19.25193092496064
19.336054173782717
19.33610193428343
19.336243550466236
19.336474215019148
19.33678650519797
19.337171146732565
19.33761789486189
19.338116379963438
19.338656839422566
19.339230640796444
19.339830608026183
19.340451132014984
19.341088105556917
19.341738728041047
19.34240119955465
19.343074337676313
19.34375715109234
19.34444838096368
19.34514603364755
19.34584692621686
19.346546270956132
19.347237339839992
19.347911239901816
19.3485568778084
19.349161144665693
19.349709386574034
19.350186173569465
19.350576339195698
19.350866207825817
19.351044856492063
19.351105221052574
19.437122138420985
19.437162468246033
19.43728220098761
19.43747769497634
19.43774328460039
19.438071811381757
19.438455251839468
19.43888533744837
19.43935411479861
19.439854367369964
19.440379902284977
19.440925673965438
19.441487766796126
19.442063266650294
19.44265003239078
19.443246394387682
19.443850811192327
19.444461497090067
19.445076045490218
19.445691071076244
19.446301896444837
19.44690231916156
19.44748448211033
19.448038905844804
19.44855469483413
19.449019955730428
19.44942242071715
19.449750241950184
19.449992890274995
19.450142049640753
19.45019238281332
19.537914982428603
19.53794917042612
19.538050751530267
19.538216869563048
19.53844305603541
19.538723618246443
19.539052107111925
19.539421789092106
19.53982608665969
19.54025892251562
19.54071496760816
19.54118976268401
19.541679725446237
19.54218206337841
19.542694598073552
19.5432155230707
19.543743122885335
19.544275466246383
19.544810097909163
19.545343751497356
19.545872107263666
19.546389625578374
19.546889472959798
19.54736358520433
19.547802868863634
19.548197563518922
19.54853774983916
19.54881397023566
19.549017908942105
19.549143052170656
19.549185242950617
19.630551447070417
19.630580210009015
19.630665716768743
19.630805690216228
19.630996553596795
19.63123372349972
19.631511968150534
19.631825774462182
19.632169698750047
19.632538648007454
19.63292809064576
19.633334167880676
19.633753712220347
19.63418418683129
19.63462354847358
19.635070051849695
19.63552201935628
19.635977588539294
19.636434459707445
19.636889664391667
19.63733937587134
19.63777878763451
19.638202072067713
19.63860245345071
19.63897239107267
19.63930388585271
19.639588893209172
19.639819812597292
19.63999001169089
19.640094325950123
19.640129472768912
19.708028384806948
19.708052164454795
19.708122886816096
19.708238753765084
19.708396932127364
19.708593774528353
19.708825092505172
19.709086439428802
19.709373385690338
19.709681743527142
19.710007740367892
19.710348115172838
19.710700141018847
19.711061583420165
19.711430595092274
19.71180556130517
19.71218491590146
19.712566938792108
19.71294955452225
19.713330149901893
19.71370542865373
19.714071324085456
19.714422978451612
19.714754814820566
19.715060694715586
19.715334169467415
19.715568808713194
19.715758581268005
19.715898255914837
19.715983778066576
19.716012578764747
19.77185656049354
19.771875894880978
19.771933417115626
19.77202772291166
19.772156594050962
19.772317164048697
19.77250612481741
19.77271994249749
19.772955070319423
19.773208124874152
19.773476025039837
19.773756071991038
19.774045971784236
19.774343807100315
19.774647957709117
19.77495698066422
19.77526946656617
19.775583880922277
19.77589840700779
19.77621080522436
19.77651830358998
19.77681753597993
19.777104534026332
19.777374792091507
19.77762339782869
19.777845233042452
19.778035230293977
19.778188665318506
19.77830146063615
19.778370467802816
19.778393697079355
19.82367820548019
19.8236936787932
19.823739727920657
19.823815268974954
19.823918586222916
19.82404745545135
19.82419929894442
19.82437134829984
19.82456080680127
19.824764985229198
19.824981410789395
19.825207891529512
19.825442536825545
19.825683738539404
19.825930111835646
19.826180404087825
19.82643338486198
19.826687724223895
19.82694187266165
19.82719395470462
19.827441687819054
19.827682339445392
19.827912726076107
19.82812926887992
19.828328098658037
19.82850521295458
19.828656673207032
19.828778826357908
19.82886853253327
19.82892337489291
19.828941829290358
19.865160656294723
19.86517285649154
19.865209174531874
19.865268783773413
19.86535037330061
19.865452238984386
19.865572398538333
19.8657087129242
19.865859008541392
19.866021180198185
19.86619327490308
19.86637354244318
19.866560452894838
19.866752684311066
19.866949079356104
19.86714857724884
19.86735013113303
19.867552616505385
19.86775474118275
19.867954966273913
19.868151447094622
19.868342003800617
19.868524124221743
19.868695009667896
19.86885165728178
19.868990980662225
19.86910995904705
19.869205803153573
19.869276124120873
19.869319088146185
19.869333540859213
19.897912104991693
19.897921591907444
19.897949839855
19.897996225760945
19.89805975993282
19.898139152628723
19.89823289858274
19.898339366481178
19.898456889720457
19.89858384332683
19.898718707326577
19.898860105633254
19.89900682041506
19.8991577842497
19.899312048829056
19.899468734950517
19.899626971537472
19.89978582794648
19.899944247638068
19.900100990454597
19.900254590259145
19.900403335241048
19.900545272404134
19.90067824418522
19.900799951767183
19.900908046173534
19.901000239576653
19.901074427897935
19.90112881483537
19.90116202474154
19.901173193025468
19.92342097476682
19.923428259031645
19.92344995333098
19.92348559325712
19.923534440049753
19.923595528783697
19.92366772981685
19.923749813988522
19.923840519203978
19.923938607111566
19.924042910309105
19.92415236171104
19.92426600598641
19.924382994719885
19.924502564162594
19.92462399905572
19.924746588358524
19.92486957602444
19.92499211292658
19.925113215364824
19.925231735163646
19.925346346741847
19.925455552028843
19.92555770905714
19.9256510797968
19.92573389794707
19.925804450918726
19.925861169426675
19.92590271759935
19.92592807459393
19.925936599727518
19.94301678972218
19.94302232140396
19.943038799581366
19.943065881586453
19.943103021559782
19.943149505003152
19.943204493009958
19.943267069272498
19.943336288384383
19.94341121709269
19.943490969001097
19.943574726414038
19.943661749235645
19.943751372114896
19.943842988855785
19.943936026625206
19.944029914291363
19.944124047164838
19.944217752674454
19.944310260981347
19.944400684186753
19.94448800804702
19.944571096658862
19.94464871436797
19.94471956137983
19.944782323567967
19.944835732164044
19.94487862854325
19.944910029059557
19.944929183526376
19.944935621743443
19.957850543860438
19.957854708913455
19.957867118592656
19.957887522099497
19.957915519385555
19.957950585726515
19.957992103291463
19.958039394731085
19.958091757889584
19.958148495524856
19.9582089405474
19.95827247207381
19.958338522233795
19.9584065745952
19.958476153388183
19.958546805353258
19.958618077397247
19.958689491668842
19.95876052137493
19.958830570245528
19.958898958280194
19.95896491659223
19.959027591558815
19.959086061368165
19.959139362222047
19.959186524554557
19.95922661608235
19.959258788243435
19.959282322469466
19.959296671770442
19.959301493730642
19.9688888223662
19.968891944920202
19.968901250332742
19.96891655584633
19.968937569559966
19.968963907816573
19.968995117616675
19.96903070048092
19.969070137247527
19.969112909344354
19.969158517020777
19.969206491056532
19.969256397914187
19.96930783896811
19.969360443141593
19.969413854259376
19.96946771543923
19.969521651649398
19.969575252842247
19.969628059756175
19.96967955426385
19.969729156280206
19.969776227287575
19.969820082722645
19.969860011116864
19.969895300266188
19.969925268100283
19.969949295793548
19.969966860627505
19.969977565426806
19.969981161858996
19.976918673572968
19.976921022136576
19.97692802236844
19.976939540720164
19.976955363603768
19.97697520971117
19.976998745948965
19.97702560440748
19.97705540009259
19.97708774615755
19.977122267080482
19.9771586072051
19.9771964346356
19.97723544095463
19.977275336224892
19.977315840211148
19.977356671520173
19.977397535439007
19.97743811221852
19.977478047303542
19.977516944845785
19.97755436594089
19.97758983156047
19.977622831820625
19.977652839969327
19.977679331312387
19.977701805375492
19.977719809547857
19.97773296246296
19.977740974876735
19.977743666156464
19.982558120049948
19.9825599161381
19.982565270656394
19.982574084401417
19.98258619850091
19.982601403273012
19.98261944972505
19.982640061797614
19.98266294923083
19.982687818627603
19.982714383116466
19.982742368670518
19.982771517090665
19.982801586010105
19.982832345480645
19.982863571822627
19.982895039997153
19.98292651504269
19.98295774385907
19.98298844842837
19.9830183214351
19.98304702533195
19.98307419477683
19.983099443664518
19.983122375496883
19.983142597274316
19.983159735646538
19.98317345405352
19.983183469617856
19.98318956818431
19.983191616172487
19.98626932296083
19.986270751015944
19.986275009095213
19.986282020465868
19.986291662084195
19.9863037712313
19.98631815415474
19.986334595267486
19.986352866866824
19.986372737497057
19.986393979321583
19.986416372984678
19.986439709981564
19.986463792821457
19.986488432614987
19.98651344460321
19.98653864259785
19.986563832722865
19.986588807435805
19.98661334065013
19.986637184679253
19.98666006979232
19.986681706285975
19.98670179002285
19.986720010427344
19.986736061096273
19.98674965205337
19.986760522691807
19.986768454488843
19.986773282295005
19.986774903213846
19.988371571936305
19.988372789805013
19.98837642164339
19.988382403389988
19.988390632216948
19.988400971927923
19.98841326000679
19.988427315117715
19.988442945064513
19.98845995364115
19.98847814671656
19.988497336273554
19.988517342426846
19.988537993663954
19.988559124982768
19.988580574350383
19.98860217829027
19.988623766902865
19.988645159126452
19.988666158909137
19.98868655287699
19.98870611014548
19.988724584168903
19.988741717425867
19.988757248073487
19.98877091871401
19.9887824864672
19.988791733567883
19.988798477751537
19.988802581456095
19.988803959048866
19.989051811466954
19.989052961044386
19.98905638940259
19.98906203657012
19.989069806246306
19.98907957080233
19.98909117781878
19.989104457040668
19.989119227771024
19.989135305235582
19.989152506252726
19.98917065300651
19.989189574950274
19.989209109070593
19.98922909820003
19.98924938777313
19.989269821780454
19.989290238198535
19.989310464646927
19.989330314895174
19.98934958676086
19.989368062000025
19.98938550808235
19.989401682599205
19.989416339484585
19.9894292371877
19.989440148043457
19.989448868116952
19.989455226841766
19.989459095552625
19.989460394182718
