# vtk DataFile Version 2.0
Unstructured Grid Example
ASCII
DATASET UNSTRUCTURED_GRID

POINTS 961 float
0.400000004 0.01999999956 0
0.3866666556 0.01999999956 0
0.3733333348 0.01999999956 0
0.3600000144 0.01999999956 0
0.346666664 0.01999999956 0
0.3333333432 0.01999999956 0
0.3199999928 0.01999999956 0
0.3066666724 0.01999999956 0
0.293333322 0.01999999956 0
0.2800000012 0.01999999956 0
0.2666666804 0.01999999956 0
0.25333333 0.01999999956 0
0.2399999948 0.01999999956 0
0.226666674 0.01999999956 0
0.2133333384 0.01999999956 0
0.2000000028 0.01999999956 0
0.1866666676 0.01999999956 0
0.173333332 0.01999999956 0
0.1599999964 0.01999999956 0
0.1466666608 0.01999999956 0
0.1333333404 0.01999999956 0
0.1199999972 0.01999999956 0
0.1066666692 0.01999999956 0
0.0933333336 0.01999999956 0
0.0799999984 0.01999999956 0
0.06666667 0.01999999956 0
0.0533333348 0.01999999956 0
0.03999999912 0.01999999956 0
0.02666666732 0.01999999956 0
0.01333333364 0.01999999956 0
0.0 0.01999999956 0
0.400000004 0.00666666684 0
0.3866666556 0.00666666684 0
0.3733333348 0.00666666684 0
0.3600000144 0.00666666684 0
0.346666664 0.00666666684 0
0.3333333432 0.00666666684 0
0.3199999928 0.00666666684 0
0.3066666724 0.00666666684 0
0.293333322 0.00666666684 0
0.2800000012 0.00666666684 0
0.2666666804 0.00666666684 0
0.25333333 0.00666666684 0
0.2399999948 0.00666666684 0
0.226666674 0.00666666684 0
0.2133333384 0.00666666684 0
0.2000000028 0.00666666684 0
0.1866666676 0.00666666684 0
0.173333332 0.00666666684 0
0.1599999964 0.00666666684 0
0.1466666608 0.00666666684 0
0.1333333404 0.00666666684 0
0.1199999972 0.00666666684 0
0.1066666692 0.00666666684 0
0.0933333336 0.00666666684 0
0.0799999984 0.00666666684 0
0.06666667 0.00666666684 0
0.0533333348 0.00666666684 0
0.03999999912 0.00666666684 0
0.02666666732 0.00666666684 0
0.01333333364 0.00666666684 0
0.0 0.00666666684 0
0.400000004 -0.00666666684 0
0.3866666556 -0.00666666684 0
0.3733333348 -0.00666666684 0
0.3600000144 -0.00666666684 0
0.346666664 -0.00666666684 0
0.3333333432 -0.00666666684 0
0.3199999928 -0.00666666684 0
0.3066666724 -0.00666666684 0
0.293333322 -0.00666666684 0
0.2800000012 -0.00666666684 0
0.2666666804 -0.00666666684 0
0.25333333 -0.00666666684 0
0.2399999948 -0.00666666684 0
0.226666674 -0.00666666684 0
0.2133333384 -0.00666666684 0
0.2000000028 -0.00666666684 0
0.1866666676 -0.00666666684 0
0.173333332 -0.00666666684 0
0.1599999964 -0.00666666684 0
0.1466666608 -0.00666666684 0
0.1333333404 -0.00666666684 0
0.1199999972 -0.00666666684 0
0.1066666692 -0.00666666684 0
0.0933333336 -0.00666666684 0
0.0799999984 -0.00666666684 0
0.06666667 -0.00666666684 0
0.0533333348 -0.00666666684 0
0.03999999912 -0.00666666684 0
0.02666666732 -0.00666666684 0
0.01333333364 -0.00666666684 0
0.0 -0.00666666684 0
0.400000004 -0.01999999956 0
0.3866666556 -0.01999999956 0
0.3733333348 -0.01999999956 0
0.3600000144 -0.01999999956 0
0.346666664 -0.01999999956 0
0.3333333432 -0.01999999956 0
0.3199999928 -0.01999999956 0
0.3066666724 -0.01999999956 0
0.293333322 -0.01999999956 0
0.2800000012 -0.01999999956 0
0.2666666804 -0.01999999956 0
0.25333333 -0.01999999956 0
0.2399999948 -0.01999999956 0
0.226666674 -0.01999999956 0
0.2133333384 -0.01999999956 0
0.2000000028 -0.01999999956 0
0.1866666676 -0.01999999956 0
0.173333332 -0.01999999956 0
0.1599999964 -0.01999999956 0
0.1466666608 -0.01999999956 0
0.1333333404 -0.01999999956 0
0.1199999972 -0.01999999956 0
0.1066666692 -0.01999999956 0
0.0933333336 -0.01999999956 0
0.0799999984 -0.01999999956 0
0.06666667 -0.01999999956 0
0.0533333348 -0.01999999956 0
0.03999999912 -0.01999999956 0
0.02666666732 -0.01999999956 0
0.01333333364 -0.01999999956 0
0.0 -0.01999999956 0
0.400000004 -0.03333333508 0
0.3866666556 -0.03333333508 0
0.3733333348 -0.03333333508 0
0.3600000144 -0.03333333508 0
0.346666664 -0.03333333508 0
0.3333333432 -0.03333333508 0
0.3199999928 -0.03333333508 0
0.3066666724 -0.03333333508 0
0.293333322 -0.03333333508 0
0.2800000012 -0.03333333508 0
0.2666666804 -0.03333333508 0
0.25333333 -0.03333333508 0
0.2399999948 -0.03333333508 0
0.226666674 -0.03333333508 0
0.2133333384 -0.03333333508 0
0.2000000028 -0.03333333508 0
0.1866666676 -0.03333333508 0
0.173333332 -0.03333333508 0
0.1599999964 -0.03333333508 0
0.1466666608 -0.03333333508 0
0.1333333404 -0.03333333508 0
0.1199999972 -0.03333333508 0
0.1066666692 -0.03333333508 0
0.0933333336 -0.03333333508 0
0.0799999984 -0.03333333508 0
0.06666667 -0.03333333508 0
0.0533333348 -0.03333333508 0
0.03999999912 -0.03333333508 0
0.02666666732 -0.03333333508 0
0.01333333364 -0.03333333508 0
0.0 -0.03333333508 0
0.400000004 -0.0466666668 0
0.3866666556 -0.0466666668 0
0.3733333348 -0.0466666668 0
0.3600000144 -0.0466666668 0
0.346666664 -0.0466666668 0
0.3333333432 -0.0466666668 0
0.3199999928 -0.0466666668 0
0.3066666724 -0.0466666668 0
0.293333322 -0.0466666668 0
0.2800000012 -0.0466666668 0
0.2666666804 -0.0466666668 0
0.25333333 -0.0466666668 0
0.2399999948 -0.0466666668 0
0.226666674 -0.0466666668 0
0.2133333384 -0.0466666668 0
0.2000000028 -0.0466666668 0
0.1866666676 -0.0466666668 0
0.173333332 -0.0466666668 0
0.1599999964 -0.0466666668 0
0.1466666608 -0.0466666668 0
0.1333333404 -0.0466666668 0
0.1199999972 -0.0466666668 0
0.1066666692 -0.0466666668 0
0.0933333336 -0.0466666668 0
0.0799999984 -0.0466666668 0
0.06666667 -0.0466666668 0
0.0533333348 -0.0466666668 0
0.03999999912 -0.0466666668 0
0.02666666732 -0.0466666668 0
0.01333333364 -0.0466666668 0
0.0 -0.0466666668 0
0.400000004 -0.0599999988 0
0.3866666556 -0.0599999988 0
0.3733333348 -0.0599999988 0
0.3600000144 -0.0599999988 0
0.346666664 -0.0599999988 0
0.3333333432 -0.0599999988 0
0.3199999928 -0.0599999988 0
0.3066666724 -0.0599999988 0
0.293333322 -0.0599999988 0
0.2800000012 -0.0599999988 0
0.2666666804 -0.0599999988 0
0.25333333 -0.0599999988 0
0.2399999948 -0.0599999988 0
0.226666674 -0.0599999988 0
0.2133333384 -0.0599999988 0
0.2000000028 -0.0599999988 0
0.1866666676 -0.0599999988 0
0.173333332 -0.0599999988 0
0.1599999964 -0.0599999988 0
0.1466666608 -0.0599999988 0
0.1333333404 -0.0599999988 0
0.1199999972 -0.0599999988 0
0.1066666692 -0.0599999988 0
0.0933333336 -0.0599999988 0
0.0799999984 -0.0599999988 0
0.06666667 -0.0599999988 0
0.0533333348 -0.0599999988 0
0.03999999912 -0.0599999988 0
0.02666666732 -0.0599999988 0
0.01333333364 -0.0599999988 0
0.0 -0.0599999988 0
0.400000004 -0.0733333304 0
0.3866666556 -0.0733333304 0
0.3733333348 -0.0733333304 0
0.3600000144 -0.0733333304 0
0.346666664 -0.0733333304 0
0.3333333432 -0.0733333304 0
0.3199999928 -0.0733333304 0
0.3066666724 -0.0733333304 0
0.293333322 -0.0733333304 0
0.2800000012 -0.0733333304 0
0.2666666804 -0.0733333304 0
0.25333333 -0.0733333304 0
0.2399999948 -0.0733333304 0
0.226666674 -0.0733333304 0
0.2133333384 -0.0733333304 0
0.2000000028 -0.0733333304 0
0.1866666676 -0.0733333304 0
0.173333332 -0.0733333304 0
0.1599999964 -0.0733333304 0
0.1466666608 -0.0733333304 0
0.1333333404 -0.0733333304 0
0.1199999972 -0.0733333304 0
0.1066666692 -0.0733333304 0
0.0933333336 -0.0733333304 0
0.0799999984 -0.0733333304 0
0.06666667 -0.0733333304 0
0.0533333348 -0.0733333304 0
0.03999999912 -0.0733333304 0
0.02666666732 -0.0733333304 0
0.01333333364 -0.0733333304 0
0.0 -0.0733333304 0
0.400000004 -0.086666666 0
0.3866666556 -0.086666666 0
0.3733333348 -0.086666666 0
0.3600000144 -0.086666666 0
0.346666664 -0.086666666 0
0.3333333432 -0.086666666 0
0.3199999928 -0.086666666 0
0.3066666724 -0.086666666 0
0.293333322 -0.086666666 0
0.2800000012 -0.086666666 0
0.2666666804 -0.086666666 0
0.25333333 -0.086666666 0
0.2399999948 -0.086666666 0
0.226666674 -0.086666666 0
0.2133333384 -0.086666666 0
0.2000000028 -0.086666666 0
0.1866666676 -0.086666666 0
0.173333332 -0.086666666 0
0.1599999964 -0.086666666 0
0.1466666608 -0.086666666 0
0.1333333404 -0.086666666 0
0.1199999972 -0.086666666 0
0.1066666692 -0.086666666 0
0.0933333336 -0.086666666 0
0.0799999984 -0.086666666 0
0.06666667 -0.086666666 0
0.0533333348 -0.086666666 0
0.03999999912 -0.086666666 0
0.02666666732 -0.086666666 0
0.01333333364 -0.086666666 0
0.0 -0.086666666 0
0.400000004 -0.1000000016 0
0.3866666556 -0.1000000016 0
0.3733333348 -0.1000000016 0
0.3600000144 -0.1000000016 0
0.346666664 -0.1000000016 0
0.3333333432 -0.1000000016 0
0.3199999928 -0.1000000016 0
0.3066666724 -0.1000000016 0
0.293333322 -0.1000000016 0
0.2800000012 -0.1000000016 0
0.2666666804 -0.1000000016 0
0.25333333 -0.1000000016 0
0.2399999948 -0.1000000016 0
0.226666674 -0.1000000016 0
0.2133333384 -0.1000000016 0
0.2000000028 -0.1000000016 0
0.1866666676 -0.1000000016 0
0.173333332 -0.1000000016 0
0.1599999964 -0.1000000016 0
0.1466666608 -0.1000000016 0
0.1333333404 -0.1000000016 0
0.1199999972 -0.1000000016 0
0.1066666692 -0.1000000016 0
0.0933333336 -0.1000000016 0
0.0799999984 -0.1000000016 0
0.06666667 -0.1000000016 0
0.0533333348 -0.1000000016 0
0.03999999912 -0.1000000016 0
0.02666666732 -0.1000000016 0
0.01333333364 -0.1000000016 0
0.0 -0.1000000016 0
0.400000004 -0.1133333372 0
0.3866666556 -0.1133333372 0
0.3733333348 -0.1133333372 0
0.3600000144 -0.1133333372 0
0.346666664 -0.1133333372 0
0.3333333432 -0.1133333372 0
0.3199999928 -0.1133333372 0
0.3066666724 -0.1133333372 0
0.293333322 -0.1133333372 0
0.2800000012 -0.1133333372 0
0.2666666804 -0.1133333372 0
0.25333333 -0.1133333372 0
0.2399999948 -0.1133333372 0
0.226666674 -0.1133333372 0
0.2133333384 -0.1133333372 0
0.2000000028 -0.1133333372 0
0.1866666676 -0.1133333372 0
0.173333332 -0.1133333372 0
0.1599999964 -0.1133333372 0
0.1466666608 -0.1133333372 0
0.1333333404 -0.1133333372 0
0.1199999972 -0.1133333372 0
0.1066666692 -0.1133333372 0
0.0933333336 -0.1133333372 0
0.0799999984 -0.1133333372 0
0.06666667 -0.1133333372 0
0.0533333348 -0.1133333372 0
0.03999999912 -0.1133333372 0
0.02666666732 -0.1133333372 0
0.01333333364 -0.1133333372 0
0.0 -0.1133333372 0
0.400000004 -0.1266666652 0
0.3866666556 -0.1266666652 0
0.3733333348 -0.1266666652 0
[...]
POINT_DATA 961
SCALARS Temp float 1
LOOKUP_TABLE default
0.740631275057512
0.7702123701018884
0.7914409404247262
0.8068763173421896
0.818186069015653
0.8265136852776698
0.8326732603104485
0.837250748214164
0.840672630182447
0.8432513938190882
0.845218721475695
0.8467485031697322
0.8479736269325887
0.8489990462052276
0.8499115299717691
0.8507873974125814
0.8516996006995623
0.8527242359387267
0.8539473832839515
0.8554729321490054
0.8574321111326859
0.8599960346016009
0.863391695779065
0.8679246901533352
0.8740097220156243
0.8822138985979009
0.8933184114724393
0.9084087750678257
0.929012278034657
0.9573454555026844
0.9969242969534561
0.7817215600546634
0.8107279061389319
0.8317284701486757
0.8470793608366238
0.8583502824246003
0.8666619632942985
0.8728167436947106
0.8773949835404613
0.8808202407879822
0.883403481912976
0.8853756081997325
0.8869101421417036
0.8881398416173265
0.889169657091908
0.8900864252533225
0.8909665745888047
0.8918831817489885
0.8929124666595388
0.8941406139300453
0.8956715706053202
0.897636532580146
0.9002064079102372
0.9036076839929786
0.908144897255882
0.9142307015809917
0.922428298331014
0.9335113739650664
0.9485499294956659
0.9690389541571333
0.9970832622722667
1.0357315007115608
2.7055295965278856
2.7098390194806554
2.72184951137379
2.732926956886074
2.74208730255799
2.7493757495507385
2.755082636303798
2.7595213977723243
2.7629700528721575
2.765659346421158
2.767775958606235
2.769469983284611
2.7708630329255697
2.772055819166134
2.773134899125553
2.7741787076599858
2.775263167563492
2.7764671916964576
2.7778783743293562
2.779599225356489
2.7817542954716195
2.784498428215617
2.7880262811886474
2.7925827422046936
2.79847261395812
2.806064601507021
2.8157753238854832
2.827990819071824
2.8427705458107138
2.8587913686797313
2.864543011591276
4.605360705336002
4.607712491961798
4.613484733935668
4.620697482388578
4.627536463847644
4.633465965177395
4.638398924772879
4.642418301218763
4.645661306872331
4.648272550781193
4.650386173926624
4.652120511176329
4.653578317706186
4.654849389709202
4.656014115472271
4.657147369594604
4.658322544996639
4.659615663328291
4.661109596778126
4.6628984124965
4.665091747087282
4.667818906401463
4.671231792892103
4.675504833150054
4.6808275489169535
4.687380376636293
4.695271996474505
4.704384454191044
4.71400051537262
4.721698365281649
4.724834692142558
6.49957910460644
6.500830772609893
6.504213548320778
6.508793847225507
6.51367171683547
6.51825530367879
6.52230099448032
6.525751249685525
6.528639195994648
6.5310369290601855
6.533029435650666
6.53470218892105
6.536136083926715
6.537406272793235
6.538583017524235
6.5397336001389705
6.540924778041576
6.542225468466648
6.543709457771538
6.545457896396589
6.54756119227887
6.550119615024304
6.553241244499009
6.557034876082261
6.561593177633211
6.566957575888596
6.573049135305164
6.579540880090536
6.58564157967485
6.590149163558486
6.5918173401068625
8.39040961411313
8.391172049356426
8.393281730302508
8.396302327449272
8.399728840408581
8.40315841864005
8.40634505205185
8.409177720491583
8.411630743040085
8.413726305035313
8.415510720996677
8.41704064301382
8.418375741373648
8.41957537348308
8.420697601119471
8.421799574224297
8.422938664400979
8.424173902593715
8.42556737813382
8.427185217438181
8.429097612603913
8.431377093939865
8.434093674783043
8.437304802309598
8.441036701893307
8.445252433316782
8.449801774416095
8.454354759655281
8.458372541836425
8.461180321304498
8.462195308763281
10.278958255717544
10.279443929708435
10.280813199662099
10.282837455446577
10.285230915434465
10.287732553103794
10.290153053194942
10.292381430986257
10.294369734699368
10.296112459840066
10.297629819569787
10.298956160042138
10.300132769555365
10.301203877373792
10.302214758733152
10.303211169743548
10.30423954755874
10.305347518307869
10.306584331179026
10.308000801287937
10.309648228242319
10.31157556561056
10.31382376425098
10.316415956346457
10.319341793445282
10.322534907827666
10.325845361779963
10.329019068931053
10.331706632999232
10.333525928738796
10.334171441596453
12.165712325304508
12.16602524342858
12.166917235730516
12.16826353082697
12.169899324999214
12.171661752437567
12.173419400830236
12.175083831589092
12.176607147489486
12.177972967421297
12.179186552316688
12.180266683468517
12.18123992626772
12.182137014570523
12.1829908107943
12.183835340577065
12.18470547372575
12.185636864362081
12.186665808920278
12.187828652509701
12.18916030113493
12.19069129907696
12.19244277685569
12.194418638526592
12.196594573081734
12.198904719259058
12.201229561635671
12.203392561457195
12.205175523294724
12.206357917490076
12.20677288733063
14.050913619475022
14.051106869205016
14.051661789314679
14.052510937098837
14.053562154720705
14.054719658212584
14.055900917704204
14.057045518129211
14.05811656880428
14.059097381122164
14.059986442776347
14.060792551468516
14.061530980614464
14.062220828845827
14.06288336040701
14.063541071483087
14.064217211102887
14.064935483640658
14.065719682348732
14.066592984427361
14.06757660171543
14.068687450048307
14.069934468219284
14.071313402260214
14.072800212994071
14.074344263552554
14.075863846352664
14.07724798003447
14.078368226167687
14.07910116901927
14.079356554973787
15.934679737374076
15.934780956419605
15.93507323983934
15.935525360270072
15.936093719210511
15.936731537761958
15.937396763737185
15.938056863954339
15.938690347474916
15.939285881625231
15.939840257273884
15.940356124379166
15.940840042701033
15.941301033138295
15.941749595913775
15.942197092676436
15.942655364910852
15.943136445229415
15.943652227164614
15.944213949203885
15.94483133641218
15.945511243481366
15.94625565281028
15.947059028838083
15.947905248016925
15.948764829110228
15.94959373538848
15.95033536226762
15.950926928937555
15.951310004684334
15.95144277155953
17.81706683782044
17.81708851971885
17.817152257854858
17.817254369099647
17.817389435847154
17.81755115511629
17.817733177188693
17.817929755025666
17.818136141224183
17.818348733354686
17.81856504487741
17.81878356520912
17.819003574392013
17.81922495429716
17.819448009784814
17.819673305748285
17.81990151903028
17.820133292929263
17.82036908464263
17.820608994549588
17.82085256834092
17.82109857106567
17.821344736274185
17.821587525587912
17.82182194261619
17.82204148985003
17.822238366253035
17.822403990619684
17.822529871050087
17.822608720043736
17.822635588375096
17.922091983950796
17.922109961551758
17.92216300663883
17.92224859577407
17.922362949344464
17.922501550704983
17.922659687647467
17.922832906426965
17.92301733003596
17.9232098193521
17.92340801239348
17.92361026998929
17.92381556929018
17.924023376581392
17.924233511824653
17.92444601396287
17.92466101101839
17.92487858873622
17.92509865411231
17.92532078905873
17.92554409179175
17.925767010980337
17.925987180138776
17.926201284644442
17.92640499216654
17.926593003181235
17.926759270721014
17.926897420677722
17.92700136091028
17.92706600088311
17.92708794542105
18.02700723670198
18.027022448807084
18.027067463005533
18.027140497782085
18.027238845367965
18.0273591987038
18.027498007426097
18.02765179422768
18.027817398660183
18.02799212302746
18.028173796408403
18.028360765964415
18.028551840531016
18.028746208364435
18.02894333816117
18.029142872464
18.029344519782597
18.029547942973352
18.02975264422087
18.02995784606208
18.030162369874688
18.03036451928954
18.03056197621564
18.030751735900296
18.030930099754215
18.031092760681872
18.03123500321341
18.031352025964054
18.031439367352075
18.031493378633364
18.03151166140395
18.131817835733134
18.131830934909967
18.13186978368524
18.131933089107335
18.132018861830986
18.132124627481204
18.132247664938223
18.132385227488946
18.132534725721094
18.13269384893887
18.132860632816225
18.133033472782692
18.133211097869925
18.133392519685437
18.13357696220431
18.13376378029689
18.133952373942837
18.134142097760893
18.134332168508642
18.134521572385268
18.134708975400862
18.134892644623537
18.135070386496384
18.13523952266077
18.135396913075493
18.13553904737323
18.13566221275555
18.135762736329482
18.135837283993553
18.135883177127248
18.135898676003354
18.236527699298428
18.2365391531048
18.23657318190545
18.23662882235592
18.23670457667623
18.236798552461163
18.236908624957213
18.237032592666512
18.23716831339184
18.237313801130252
18.23746728821353
18.23762724773573
18.237792384903003
18.237961607055727
18.23813397528948
18.238308644074444
18.238484795555713
18.23866156910283
18.238837989838643
18.239012899082045
18.239184890542987
18.239352259413604
18.239512968644384
18.239664647903773
18.23980462906342
18.239930030894847
18.240037894390934
18.24012536340642
18.240189896177256
18.240229481123443
18.24024282489624
18.341139773088127
18.341149926095795
18.341180132006915
18.34122965441235
18.341297337857423
18.341381702234145
18.341481055136473
18.341593602253297
18.341717548433063
18.34185117333876
18.34199288498362
18.34214124444243
18.34229496689258
18.342452905554598
18.342614019481697
18.34277733018015
18.342941873082662
18.343106644690202
18.343270549389203
18.34343234915842
18.34359061986966
18.343743720277345
18.34388977625088
18.344026692027267
18.344152188648067
18.344263877486263
18.344359367147938
18.34443639797063
18.344492993201804
18.344527608565173
18.344539259762346
18.442293686834915
18.44230279262172
18.442329912391404
18.442374468958043
18.442435549335098
18.442511969645338
18.442602354150775
18.442705214295344
18.442819024021002
18.442942278215668
18.44307353738069
18.44321145141235
18.443354765719523
18.443502314254914
18.44365299909635
18.44380576038713
18.443959541880723
18.444113252783932
18.444265729722815
18.44441570186491
18.444561762430894
18.444702351596934
18.44483575196288
18.4449601056837
18.445073451295677
18.44517378543735
18.44525914653542
18.44532771525316
18.445377923725417
18.445408560899946
18.445418860704496
18.536605242506425
18.5366134890747
18.53663807068891
18.536678523896583
18.53673411031248
18.536803862007382
18.536886637952996
18.536981181176785
18.537086175245246
18.537200289259516
18.537322214568142
18.53745068631199
18.537584491980134
18.53772247032459
18.53786349944948
18.538006476968533
18.53815029672106
18.538293822456716
18.538435861907956
18.538575143884422
18.538710301040254
18.538839862329283
18.538962255309507
18.5390758255027
18.53917886969591
18.539269686878193
18.539346643597376
18.539408249412887
18.539453236735923
18.53948063616934
18.5394898385858
18.62404276934152
18.62405030332679
18.62407277572913
18.624109805547604
18.624160781861043
18.62422489607412
18.624301182857657
18.624388561924714
18.624485880781094
18.62459194943075
18.624705570427317
18.624825557855917
18.624950746876053
18.62507999641748
18.625212183360905
18.62534619040437
18.625480891434556
18.625615134485887
18.625747725224528
18.625877413125416
18.62600288242011
18.626122751004473
18.62623557676141
18.62633987717669
18.626434158591103
18.626516957952575
18.626586893986286
18.626642724329923
18.626683404608887
18.6267081431384
18.626716445387885
18.70457783200602
18.704584770215916
18.70460547619558
18.704639629522624
18.70468671350255
18.704746038440113
18.704816771815207
18.704897969188305
18.704988606945463
18.705087609238777
18.705193872673394
18.705306282860285
18.705423724183667
18.7055450849087
18.705669255694367
18.705795123197877
18.70592156202062
18.706047424769167
18.7061715326955
18.706292668631463
18.706409573789124
18.706520950953074
18.706625473048398
18.7067218020266
18.706808614217945
18.706884634559408
18.706948676910073
18.706999687754408
18.70703679049346
18.707059325772665
18.707066883867604
18.77818508306541
18.778191520490864
18.778210739618913
18.7782424650727
18.778286250609845
18.778341496191544
18.778407470612333
18.778483334680285
18.77856816666933
18.778660983451736
18.778760760968407
18.778866448669586
18.778976979134434
18.7790912746998
18.77920824903409
18.779326804961435
18.779445831318434
18.779564198352883
18.779680753703992
18.77979432028009
18.779903697183315
18.780007665690732
18.780104998972874
18.7801944798247
18.780274922555687
18.78034520119679
18.780404281565936
18.780451255103902
18.780485372562673
18.780506074210717
18.78051301382361
18.844842110215698
18.84484812568866
18.844866090578993
18.844895763357414
18.844936750984132
18.84498852164922
18.84505042206986
18.845121695154972
18.84520150013791
18.845288929390772
18.845383025631815
18.84548279461618
18.845587214448024
18.845695243152427
18.845805822395572
18.84591787837754
18.846030322302592
18.846142049724346
18.846251940445885
18.846358859956947
18.84646166322127
18.8465592024266
18.846650337193825
18.846733951036484
18.846808970313624
18.846874387690757
18.846929287960243
18.846972874612074
18.847004495868376
18.847023667692895
18.847030091878985
18.904529672471483
18.90453533272383
18.904552240738354
18.904580180635474
18.904618799876108
18.90466761895701
18.904726044915336
18.90479338504188
18.90486886313033
18.904951633095333
18.905040793682705
18.90513539975254
18.905234471237378
18.905337001282714
18.90544196145853
18.905548304859217
18.905654969195368
18.90576087901392
18.905864948431656
18.905966085097084
18.906063195931836
18.906155195963688
18.90624101864226
18.906319631071614
18.906390050542065
18.90645136428889
18.90650275059835
18.906543500018543
18.906573035839507
18.906590931947413
18.906596926723577
18.957230779196703
18.95723614182523
18.95725216365103
18.957278648342818
18.95731527435578
18.957361602473497
18.95741708660292
18.957481084650944
18.957552871938802
18.957631652464215
18.95771657171636
18.957806726849924
18.95790117529915
18.957998943246228
18.95809903185766
18.958200421953062
18.95830207897307
18.958402957263612
18.958502004827373
18.95859816904858
18.95869040374363
18.9587776786235
18.95885898950593
18.958933372443457
18.95899991830016
18.959057789646568
18.95910623831673
18.959144622661338
18.959172423982213
18.959189260672662
18.959194899122586
19.00293149912767
19.002936614788876
19.002951900804756
19.00297717576631
19.0030121418764
19.003056390964627
19.003109413343427
19.003170606648794
19.0032392871891
19.003314699479333
19.003396027629723
19.00348240465994
19.003572920805546
19.003666632161597
19.00376256761358
19.003859734607637
19.003957125441516
19.004053723009452
19.004148506968818
19.00424046067566
19.004328579093396
19.00441187859235
19.004489406956953
19.004560256563618
19.004623577405553
19.004678591792135
19.004724609245667
19.00476104083596
19.004787412665582
19.004803377328038
19.004808722664976
19.041619837845197
19.041624751918466
19.04163943703338
19.04166372311933
19.041697330482364
19.041739874739516
19.04179087429093
19.041849757705588
19.04191587357355
19.04198849878306
19.042066848846993
19.042150086561612
19.042237330052092
19.042327661497875
19.042420134526267
19.042513780744397
19.042607616948303
19.042700651884385
19.042791893391904
19.042880356154747
19.042965070157926
19.04304509064287
19.043119507875954
19.04318745953862
19.04324814254278
19.04330082606658
19.04334486447302
19.043379709504542
19.043404921625932
19.043420179549567
19.043425287453648
19.073286307736428
19.073291061604117
19.07330526899079
19.073328768315804
19.073361293478605
19.073402478035344
19.073451861693428
19.07350889666904
19.07357295646909
19.073643343266685
19.073719297450435
19.07380000579407
19.073884609291337
19.07397221190819
19.07406188827831
19.074152690751752
19.07424365722796
19.07433381861078
19.074422206609775
19.074507862029833
19.07458984356655
19.074667237812164
19.074739168792995
19.074804809731045
19.07486339393974
19.074914226622756
19.074956696344813
19.07499028567776
19.07501458100553
19.075029280670854
19.075034201100888
19.097923372646413
19.09792800470834
19.097941848769935
19.097964749406806
19.0979964503979
19.098036598383416
19.098084748685892
19.098140370959797
19.098202857228422
19.09827152863142
19.098345644422903
19.098424409789136
19.09850698352182
19.098592486769682
19.098680010924642
19.0987686250104
19.098857383927417
19.09894533636632
19.099031533040886
19.099115035320953
19.099194924229522
19.099270310445043
19.09934034364125
19.099404223771547
19.09946121129213
19.099510638071777
19.09955191783523
19.09958455572041
19.099608157008888
19.099622434314295
19.09962721295159
19.115525202862628
19.115529749363247
19.115543338158357
19.115565817997897
19.115596939371436
19.11563635783048
19.115683639371337
19.115738265624596
19.115799641403598
19.115867101040166
19.11593991701597
19.1160173075437
19.116098444126443
19.1161824602982
19.116268459624038
19.116355523300662
19.116442718657765
19.11652910735839
19.11661375389899
19.11669573445002
19.116774145966026
19.11684811616465
19.11691681271695
19.116979454197992
19.117035319851738
19.117083759903334
19.11712420531833
19.11715617664006
19.1171792920131
19.11719327374353
19.11719795317398
19.126087890296198
19.12609238602142
19.12610582331157
19.126128053336455
19.126158830480435
19.12619781547639
19.126244580542007
19.12629861431013
19.12635932910119
19.126426067025417
19.126498108405052
19.126574679218862
19.126654958594262
19.126738087536914
19.126823176991063
19.126909315555192
19.12699557812301
19.127081034240035
19.127164756748385
19.127245830737483
19.127323362710243
19.127396490540306
19.127464392569724
19.12752629836219
19.127581498201884
19.12762935306155
19.12766930397039
19.127700880441616
19.127723708094546
19.127737514859362
19.12774213557287
19.12960903450163
19.129613513393846
19.129626900453985
19.129649047644808
19.129679710627627
19.129718551835722
19.129765145530886
19.129818982650413
19.129879477989853
19.129945976230015
19.130017760290944
19.13009405873184
19.13017405322089
19.13025688726068
19.130341674267136
19.13042750532162
19.130513457856086
19.130598604059315
19.130682019567253
19.130762792448166
19.130840032385592
19.13091288062708
19.130980519050645
19.131042180852514
19.13109715995891
19.13114482088169
19.131184607958897
19.131216053649293
19.1312387860243
19.13125253485779
19.131257136131445
