# vtk DataFile Version 2.0
Unstructured Grid Example
ASCII
DATASET UNSTRUCTURED_GRID

POINTS 961 float
0.400000004 0.01999999956 0
0.3866666556 0.01999999956 0
0.3733333348 0.01999999956 0
0.3600000144 0.01999999956 0
0.346666664 0.01999999956 0
0.3333333432 0.01999999956 0
0.3199999928 0.01999999956 0
0.3066666724 0.01999999956 0
0.293333322 0.01999999956 0
0.2800000012 0.01999999956 0
0.2666666804 0.01999999956 0
0.25333333 0.01999999956 0
0.2399999948 0.01999999956 0
0.226666674 0.01999999956 0
0.2133333384 0.01999999956 0
0.2000000028 0.01999999956 0
0.1866666676 0.01999999956 0
0.173333332 0.01999999956 0
0.1599999964 0.01999999956 0
0.1466666608 0.01999999956 0
0.1333333404 0.01999999956 0
0.1199999972 0.01999999956 0
0.1066666692 0.01999999956 0
0.0933333336 0.01999999956 0
0.0799999984 0.01999999956 0
0.06666667 0.01999999956 0
0.0533333348 0.01999999956 0
0.03999999912 0.01999999956 0
0.02666666732 0.01999999956 0
0.01333333364 0.01999999956 0
0.0 0.01999999956 0
0.400000004 0.00666666684 0
0.3866666556 0.00666666684 0
0.3733333348 0.00666666684 0
0.3600000144 0.00666666684 0
0.346666664 0.00666666684 0
0.3333333432 0.00666666684 0
0.3199999928 0.00666666684 0
0.3066666724 0.00666666684 0
0.293333322 0.00666666684 0
0.2800000012 0.00666666684 0
0.2666666804 0.00666666684 0
0.25333333 0.00666666684 0
0.2399999948 0.00666666684 0
0.226666674 0.00666666684 0
0.2133333384 0.00666666684 0
0.2000000028 0.00666666684 0
0.1866666676 0.00666666684 0
0.173333332 0.00666666684 0
0.1599999964 0.00666666684 0
0.1466666608 0.00666666684 0
0.1333333404 0.00666666684 0
0.1199999972 0.00666666684 0
0.1066666692 0.00666666684 0
0.0933333336 0.00666666684 0
0.0799999984 0.00666666684 0
0.06666667 0.00666666684 0
0.0533333348 0.00666666684 0
0.03999999912 0.00666666684 0
0.02666666732 0.00666666684 0
0.01333333364 0.00666666684 0
0.0 0.00666666684 0
0.400000004 -0.00666666684 0
0.3866666556 -0.00666666684 0
0.3733333348 -0.00666666684 0
0.3600000144 -0.00666666684 0
0.346666664 -0.00666666684 0
0.3333333432 -0.00666666684 0
0.3199999928 -0.00666666684 0
0.3066666724 -0.00666666684 0
0.293333322 -0.00666666684 0
0.2800000012 -0.00666666684 0
0.2666666804 -0.00666666684 0
0.25333333 -0.00666666684 0
0.2399999948 -0.00666666684 0
0.226666674 -0.00666666684 0
0.2133333384 -0.00666666684 0
0.2000000028 -0.00666666684 0
0.1866666676 -0.00666666684 0
0.173333332 -0.00666666684 0
0.1599999964 -0.00666666684 0
0.1466666608 -0.00666666684 0
0.1333333404 -0.00666666684 0
0.1199999972 -0.00666666684 0
0.1066666692 -0.00666666684 0
0.0933333336 -0.00666666684 0
0.0799999984 -0.00666666684 0
0.06666667 -0.00666666684 0
0.0533333348 -0.00666666684 0
0.03999999912 -0.00666666684 0
0.02666666732 -0.00666666684 0
0.01333333364 -0.00666666684 0
0.0 -0.00666666684 0
0.400000004 -0.01999999956 0
0.3866666556 -0.01999999956 0
0.3733333348 -0.01999999956 0
0.3600000144 -0.01999999956 0
0.346666664 -0.01999999956 0
0.3333333432 -0.01999999956 0
0.3199999928 -0.01999999956 0
0.3066666724 -0.01999999956 0
0.293333322 -0.01999999956 0
0.2800000012 -0.01999999956 0
0.2666666804 -0.01999999956 0
0.25333333 -0.01999999956 0
0.2399999948 -0.01999999956 0
0.226666674 -0.01999999956 0
0.2133333384 -0.01999999956 0
0.2000000028 -0.01999999956 0
0.1866666676 -0.01999999956 0
0.173333332 -0.01999999956 0
0.1599999964 -0.01999999956 0
0.1466666608 -0.01999999956 0
0.1333333404 -0.01999999956 0
0.1199999972 -0.01999999956 0
0.1066666692 -0.01999999956 0
0.0933333336 -0.01999999956 0
0.0799999984 -0.01999999956 0
0.06666667 -0.01999999956 0
0.0533333348 -0.01999999956 0
0.03999999912 -0.01999999956 0
0.02666666732 -0.01999999956 0
0.01333333364 -0.01999999956 0
0.0 -0.01999999956 0
0.400000004 -0.03333333508 0
0.3866666556 -0.03333333508 0
0.3733333348 -0.03333333508 0
0.3600000144 -0.03333333508 0
0.346666664 -0.03333333508 0
0.3333333432 -0.03333333508 0
0.3199999928 -0.03333333508 0
0.3066666724 -0.03333333508 0
0.293333322 -0.03333333508 0
0.2800000012 -0.03333333508 0
0.2666666804 -0.03333333508 0
0.25333333 -0.03333333508 0
0.2399999948 -0.03333333508 0
0.226666674 -0.03333333508 0
0.2133333384 -0.03333333508 0
0.2000000028 -0.03333333508 0
0.1866666676 -0.03333333508 0
0.173333332 -0.03333333508 0
0.1599999964 -0.03333333508 0
0.1466666608 -0.03333333508 0
0.1333333404 -0.03333333508 0
0.1199999972 -0.03333333508 0
0.1066666692 -0.03333333508 0
0.0933333336 -0.03333333508 0
0.0799999984 -0.03333333508 0
0.06666667 -0.03333333508 0
0.0533333348 -0.03333333508 0
0.03999999912 -0.03333333508 0
0.02666666732 -0.03333333508 0
0.01333333364 -0.03333333508 0
0.0 -0.03333333508 0
0.400000004 -0.0466666668 0
0.3866666556 -0.0466666668 0
0.3733333348 -0.0466666668 0
0.3600000144 -0.0466666668 0
0.346666664 -0.0466666668 0
0.3333333432 -0.0466666668 0
0.3199999928 -0.0466666668 0
0.3066666724 -0.0466666668 0
0.293333322 -0.0466666668 0
0.2800000012 -0.0466666668 0
0.2666666804 -0.0466666668 0
0.25333333 -0.0466666668 0
0.2399999948 -0.0466666668 0
0.226666674 -0.0466666668 0
0.2133333384 -0.0466666668 0
0.2000000028 -0.0466666668 0
0.1866666676 -0.0466666668 0
0.173333332 -0.0466666668 0
0.1599999964 -0.0466666668 0
0.1466666608 -0.0466666668 0
0.1333333404 -0.0466666668 0
0.1199999972 -0.0466666668 0
0.1066666692 -0.0466666668 0
0.0933333336 -0.0466666668 0
0.0799999984 -0.0466666668 0
0.06666667 -0.0466666668 0
0.0533333348 -0.0466666668 0
0.03999999912 -0.0466666668 0
0.02666666732 -0.0466666668 0
0.01333333364 -0.0466666668 0
0.0 -0.0466666668 0
0.400000004 -0.0599999988 0
0.3866666556 -0.0599999988 0
0.3733333348 -0.0599999988 0
0.3600000144 -0.0599999988 0
0.346666664 -0.0599999988 0
0.3333333432 -0.0599999988 0
0.3199999928 -0.0599999988 0
0.3066666724 -0.0599999988 0
0.293333322 -0.0599999988 0
0.2800000012 -0.0599999988 0
0.2666666804 -0.0599999988 0
0.25333333 -0.0599999988 0
0.2399999948 -0.0599999988 0
0.226666674 -0.0599999988 0
0.2133333384 -0.0599999988 0
0.2000000028 -0.0599999988 0
0.1866666676 -0.0599999988 0
0.173333332 -0.0599999988 0
0.1599999964 -0.0599999988 0
0.1466666608 -0.0599999988 0
0.1333333404 -0.0599999988 0
0.1199999972 -0.0599999988 0
0.1066666692 -0.0599999988 0
0.0933333336 -0.0599999988 0
0.0799999984 -0.0599999988 0
0.06666667 -0.0599999988 0
0.0533333348 -0.0599999988 0
0.03999999912 -0.0599999988 0
0.02666666732 -0.0599999988 0
0.01333333364 -0.0599999988 0
0.0 -0.0599999988 0
0.400000004 -0.0733333304 0
0.3866666556 -0.0733333304 0
0.3733333348 -0.0733333304 0
0.3600000144 -0.0733333304 0
0.346666664 -0.0733333304 0
0.3333333432 -0.0733333304 0
0.3199999928 -0.0733333304 0
0.3066666724 -0.0733333304 0
0.293333322 -0.0733333304 0
0.2800000012 -0.0733333304 0
0.2666666804 -0.0733333304 0
0.25333333 -0.0733333304 0
0.2399999948 -0.0733333304 0
0.226666674 -0.0733333304 0
0.2133333384 -0.0733333304 0
0.2000000028 -0.0733333304 0
0.1866666676 -0.0733333304 0
0.173333332 -0.0733333304 0
0.1599999964 -0.0733333304 0
0.1466666608 -0.0733333304 0
0.1333333404 -0.0733333304 0
0.1199999972 -0.0733333304 0
0.1066666692 -0.0733333304 0
0.0933333336 -0.0733333304 0
0.0799999984 -0.0733333304 0
0.06666667 -0.0733333304 0
0.0533333348 -0.0733333304 0
0.03999999912 -0.0733333304 0
0.02666666732 -0.0733333304 0
0.01333333364 -0.0733333304 0
0.0 -0.0733333304 0
0.400000004 -0.086666666 0
0.3866666556 -0.086666666 0
0.3733333348 -0.086666666 0
0.3600000144 -0.086666666 0
0.346666664 -0.086666666 0
0.3333333432 -0.086666666 0
0.3199999928 -0.086666666 0
0.3066666724 -0.086666666 0
0.293333322 -0.086666666 0
0.2800000012 -0.086666666 0
0.2666666804 -0.086666666 0
0.25333333 -0.086666666 0
0.2399999948 -0.086666666 0
0.226666674 -0.086666666 0
0.2133333384 -0.086666666 0
0.2000000028 -0.086666666 0
0.1866666676 -0.086666666 0
0.173333332 -0.086666666 0
0.1599999964 -0.086666666 0
0.1466666608 -0.086666666 0
0.1333333404 -0.086666666 0
0.1199999972 -0.086666666 0
0.1066666692 -0.086666666 0
0.0933333336 -0.086666666 0
0.0799999984 -0.086666666 0
0.06666667 -0.086666666 0
0.0533333348 -0.086666666 0
0.03999999912 -0.086666666 0
0.02666666732 -0.086666666 0
0.01333333364 -0.086666666 0
0.0 -0.086666666 0
0.400000004 -0.1000000016 0
0.3866666556 -0.1000000016 0
0.3733333348 -0.1000000016 0
0.3600000144 -0.1000000016 0
0.346666664 -0.1000000016 0
0.3333333432 -0.1000000016 0
0.3199999928 -0.1000000016 0
0.3066666724 -0.1000000016 0
0.293333322 -0.1000000016 0
0.2800000012 -0.1000000016 0
0.2666666804 -0.1000000016 0
0.25333333 -0.1000000016 0
0.2399999948 -0.1000000016 0
0.226666674 -0.1000000016 0
0.2133333384 -0.1000000016 0
0.2000000028 -0.1000000016 0
0.1866666676 -0.1000000016 0
0.173333332 -0.1000000016 0
0.1599999964 -0.1000000016 0
0.1466666608 -0.1000000016 0
0.1333333404 -0.1000000016 0
0.1199999972 -0.1000000016 0
0.1066666692 -0.1000000016 0
0.0933333336 -0.1000000016 0
0.0799999984 -0.1000000016 0
0.06666667 -0.1000000016 0
0.0533333348 -0.1000000016 0
0.03999999912 -0.1000000016 0
0.02666666732 -0.1000000016 0
0.01333333364 -0.1000000016 0
0.0 -0.1000000016 0
0.400000004 -0.1133333372 0
0.3866666556 -0.1133333372 0
0.3733333348 -0.1133333372 0
0.3600000144 -0.1133333372 0
0.346666664 -0.1133333372 0
0.3333333432 -0.1133333372 0
0.3199999928 -0.1133333372 0
0.3066666724 -0.1133333372 0
0.293333322 -0.1133333372 0
0.2800000012 -0.1133333372 0
0.2666666804 -0.1133333372 0
0.25333333 -0.1133333372 0
0.2399999948 -0.1133333372 0
0.226666674 -0.1133333372 0
0.2133333384 -0.1133333372 0
0.2000000028 -0.1133333372 0
0.1866666676 -0.1133333372 0
0.173333332 -0.1133333372 0
0.1599999964 -0.1133333372 0
0.1466666608 -0.1133333372 0
0.1333333404 -0.1133333372 0
0.1199999972 -0.1133333372 0
0.1066666692 -0.1133333372 0
0.0933333336 -0.1133333372 0
0.0799999984 -0.1133333372 0
0.06666667 -0.1133333372 0
0.0533333348 -0.1133333372 0
0.03999999912 -0.1133333372 0
0.02666666732 -0.1133333372 0
0.01333333364 -0.1133333372 0
0.0 -0.1133333372 0
0.400000004 -0.1266666652 0
0.3866666556 -0.1266666652 0
0.3733333348 -0.1266666652 0
[...]
POINT_DATA 961
SCALARS Temp float 1
LOOKUP_TABLE default
0.6818862683962064
0.7091210092729628
0.7286656210457187
0.7428764612346783
0.7532888503895893
0.760955592162412
0.7666262172343236
0.7708402091306051
0.7739902259414094
0.7763639730186762
0.7781747593115168
0.7795826852077801
0.7807101012455363
0.7816536390752273
0.782493188225874
0.7832990172174412
0.784138294483735
0.7850810827850274
0.7862066366692017
0.7876106068880078
0.789413814312561
0.7917738012325757
0.7948995558235233
0.7990724331121036
0.8046742418013908
0.8122271044874529
0.8224502468275814
0.8363430789193675
0.8553117448434415
0.8813969669438555
0.9178358444407968
0.7197180688737087
0.7464236544014211
0.7657583413045256
0.7798913914697951
0.7902680229967946
0.7979200836195863
0.8035862824932912
0.8078009528281976
0.8109540615155626
0.8133319136226764
0.8151470991890225
0.816559380446842
0.8176909883321378
0.8186385519914801
0.8194820235297222
0.8202917723504279
0.8211350817420162
0.8220821287131663
0.8232122642309498
0.8246211923529413
0.8264297040823028
0.8287951519996501
0.8319260588091753
0.8361028047108078
0.841705310866361
0.8492521040531428
0.8594555003820092
0.8733006273737319
0.8921638922536931
0.9179831585442542
0.9535652682398487
2.4909677684770264
2.49493527518244
2.505992821381879
2.516191140554981
2.5246242492134616
2.531333778536297
2.5365870517584526
2.5406726557477146
2.5438465700848565
2.5463212499916232
2.548268581470766
2.549826766581606
2.551107785552588
2.552204376001776
2.5531962440433986
2.554155617938891
2.5551524131268777
2.5562592977441425
2.5575569323461185
2.5591397094419115
2.5611223133408654
2.5636473175146715
2.566893950536361
2.5710876860427407
2.5765091594127547
2.5834978394158092
2.5924373089665287
2.603682998303375
2.617289670136894
2.6320391818567703
2.6373344157886796
4.240143293890808
4.242308389604456
4.247622336431661
4.254262241151916
4.260557749026416
4.266015655633366
4.27055582308306
4.274254648957599
4.2772384822941785
4.279640483253068
4.281584175383637
4.283178530969588
4.284518179408518
4.285685819867573
4.286755490483281
4.287796153459928
4.288875406977426
4.290063269280648
4.291436065331083
4.2930804263599684
4.295097317139304
4.297605810381498
4.3007457818172465
4.304677843479899
4.309576504226561
4.315607907827855
4.32287213417513
4.331260608343023
4.340113017718636
4.347199696279814
4.350087048095435
5.984152803849751
5.985304986658905
5.9884188346273906
5.992634823077227
5.997124397094739
6.001342667091047
6.005065365148855
6.008239540731434
6.0108957204632345
6.013100311251144
6.014931590705728
6.01646828616154
6.017784911679064
6.018950695286291
6.020030363810289
6.02108590115623
6.022178808512231
6.023372575470173
6.024735174023908
6.026341355255183
6.028274392230818
6.030626635961582
6.033497626562548
6.036987561179763
6.041181787113598
6.046118473848004
6.0517249754309645
6.057700281365889
6.063315954288038
6.067465305917339
6.069000928864396
7.725045181701678
7.725746880982065
7.727688446469161
7.730468167957105
7.733621117457959
7.736776419996161
7.739707605487984
7.74231249084546
7.7445674669986575
7.746492997922137
7.748131765965393
7.7495359738426295
7.750760605461994
7.751860358597417
7.7528887396248205
7.7538984164015385
7.754942261317377
7.7560746744173015
7.75735287095941
7.758837781988722
7.760594080216701
7.76268858916456
7.765185812834537
7.768138683398378
7.771571385322339
7.775449945508211
7.779636092509867
7.783826067232793
7.787523795526598
7.79010803062417
7.791042229760001
9.46383924137401
9.464286073275336
9.465545781235331
9.46740789973207
9.469609333793779
9.47190978678307
9.474134991438092
9.476182803604022
9.478009117448758
9.479608912214854
9.481000849019656
9.482216604598127
9.483294250324153
9.484274567781155
9.485199303471562
9.486110647937394
9.487051419370395
9.488065530597947
9.489198388081919
9.490496838687621
9.49200817344408
9.493777520973147
9.495842639106112
9.498224877113586
9.500914755841615
9.503851216680516
9.50689625603762
9.509815978677036
9.512288734542576
9.513962734135236
9.51455671308617
11.200984130872428
11.20127184843691
11.20209195259004
11.203329581809127
11.204833025985554
11.206452367236121
11.208066653793647
11.20959450596859
11.210991876082195
11.21224373858887
11.213354998522455
11.214343013409454
11.215232311362836
11.21605126146209
11.216830194900535
11.217600515467286
11.218394404966173
11.219244767303207
11.220185096943517
11.221248931576863
11.22246848161033
11.223871938647537
11.225478823616747
11.227292793162235
11.2292915222326
11.231414426201393
11.233551516595451
11.235540298590672
11.23717991790549
11.238267362993012
11.238649028381692
12.936702952437296
12.936880429107173
12.937390004470076
12.938169600260883
12.93913439315136
12.940196230644109
12.941279171844588
12.942327644855155
12.943307743848381
12.944204169709142
12.945015602090455
12.945750218376055
12.946422162745037
12.947049104973583
12.947650711564748
12.94824778523606
12.948861822822572
12.949514740408832
12.950228534960914
12.951024634359438
12.951922654209636
12.952938251159603
12.954079733105665
12.955343256368716
12.956706755530332
12.958123670663035
12.959518828466011
12.96079009598833
12.961819259226528
12.962492718911685
12.962727397055852
14.671104440125047
14.671197117747614
14.671464684733296
14.671878407602666
14.67239817405445
14.672980954382346
14.673588080863997
14.674189659434617
14.674765971338676
14.675306658625702
14.675808849887737
14.676275074561715
14.676711467346028
14.677126433344224
14.67752974306067
14.677931962455677
14.678344100444626
14.678777341950557
14.679242742742943
14.6797507532666
14.68031042726038
14.680928171339836
14.68160590095236
14.68233860354363
14.683111511231804
14.6838975499694
14.684656235980384
14.685335505019363
14.68587759629017
14.68622874314561
14.686350462509656
16.404240736735815
16.404260113684828
16.404317047092796
16.40440816510531
16.404528511476972
16.404672327013277
16.404833821138205
16.405007769281575
16.405189877512843
16.40537691563747
16.405566689360167
16.405757910463496
16.40595002512363
16.40614303881624
16.40633735042664
16.406533600992113
16.406732535999282
16.406934870107246
16.407141145357734
16.407351572674823
16.407565848405543
16.407782944984778
16.4080008788713
16.408216487958693
16.408425259262884
16.4086212882476
16.408797459870687
16.408945929689384
16.40905892371377
16.409129764534512
16.409153914883674
16.500939470357583
16.500955429491217
16.501002496071827
16.50107836618067
16.501179592024098
16.50130205958667
16.50144148659674
16.501593840017087
16.501755628229176
16.501924048677523
16.502097022938457
16.502273145700222
16.502451585652977
16.50263196710096
16.502814243997037
16.502998574687954
16.503185200933377
16.50337432562686
16.503565985797135
16.503759916537945
16.50395540367491
16.504151129746354
16.504345020410373
16.504534120762965
16.504714530281017
16.504881448329485
16.505029375598518
16.50515250032226
16.50524525841654
16.505302995521763
16.505322605358753
16.597538423091127
16.59755182233902
16.59759145394174
16.597655697495288
16.597742092762587
16.59784764038453
16.59796912906444
16.59810342630215
16.598247701995533
16.598399562024998
16.598557106101214
16.598718918739355
16.59888401623328
16.599051769607073
16.59922181220438
16.599393940276673
16.599568012244895
16.59974384455947
16.599921104420467
16.600099198863585
16.60027716155253
16.60045354408333
16.600626319106933
16.60079281926155
16.600949729537813
16.60109316481585
16.60121885322147
16.601322432247798
16.601399840039203
16.601447750384967
16.601463975145975
16.694042446910526
16.694053880526518
16.694087775063323
16.694142960582766
16.694217639370198
16.69430958020648
16.69441633716953
16.694535452695217
16.69466462507438
16.69480181947789
16.69494532911113
16.69509378648205
16.695246138194385
16.69540159660554
16.695559573862923
16.695719605578425
16.69588127038305
16.69604410521243
16.696207518711606
16.696370704467757
16.696532557108217
16.69669159839121
16.69684591922533
16.696993156087064
16.697130511241284
16.697254835791504
16.697362783326444
16.697451032250576
16.697516560276796
16.69755693546248
16.697570576759315
16.790455190050046
16.790465081736485
16.790494457702355
16.79054245234724
16.790607721978876
16.790688573194117
16.790783111677683
16.790889384892534
16.791005506407046
16.791129744311725
16.791260577250675
16.79139671396968
16.791537084176575
16.791680809519676
16.79182715766509
16.791975485333037
16.792125176282
16.79227557496398
16.792425919227504
16.792575274792007
16.79272247506184
16.7928660727899
16.79300430778533
16.793135104573174
16.793256103952608
16.793364739868956
16.793458363030137
16.79353440640149
16.79359057923357
16.79362506519252
16.793636695094442
16.88677941860197
16.886788078540967
16.886813832834104
16.88685602591962
16.88691363110377
16.88698533710963
16.887069650883628
16.887164998633
16.887269817900417
16.887382626387257
16.887502070002835
16.88762694445917
16.88775619499385
16.887888900089617
16.888024240366406
16.888161457198823
16.888299806431306
16.88843850815251
16.888576696156992
16.888713370076914
16.88884735363002
16.88897726452501
16.889101498634208
16.889218238896948
16.889325489535555
16.889421142584332
16.889503075288722
16.889569273075015
16.889617967986272
16.889647775801567
16.889657813007172
16.979930496747937
16.97993815594027
16.97996095950674
16.979998399662556
16.980049674907466
16.980113749412936
16.98018942511424
16.980275413853928
16.98037040570043
16.98047312188656
16.980582354629913
16.980696987811527
16.980816001308476
16.980938463004698
16.981063508462967
16.98119031172945
16.981318051918713
16.981445876439725
16.981572864320285
16.981697992446836
16.98182010773455
16.98193790975787
16.982049945196202
16.982154622070265
16.98225024241087
16.982335057854783
16.98240734561388
16.982465500049152
16.982508132449645
16.982534167403408
16.98254292353205
17.066801363212456
17.066808197178503
17.06682856180278
17.066862055116978
17.066908038200168
17.066965676576487
17.067033991483413
17.067111911835397
17.067198325156696
17.0672921180952
17.067392208859097
17.067497565780535
17.06760721383298
17.067720231985707
17.067835740637424
17.06795288175618
17.068070795669705
17.068188595115895
17.068305339634374
17.06842001275008
17.068531504429295
17.068638602426823
17.068739992958946
17.068834276916967
17.068919999231024
17.068995694477703
17.069059945921953
17.069111454034584
17.069149109170116
17.06917206028678
17.06917977164066
17.147361536542473
17.147367682801306
17.147386010919917
17.147416195864356
17.147457717759817
17.147509891172707
17.147571902076102
17.147642845628404
17.147721764419547
17.147807679474276
17.14789961650046
17.147996622041262
17.148097770845588
17.14820216663605
17.148308935084717
17.14841721098443
17.148526122933884
17.14863477585454
17.148742233974176
17.148847506299425
17.14894953653227
17.14904720028543
17.149139309392673
17.1492246282898
17.149301899594708
17.14936988120391
17.149427392224986
17.14947336458893
17.14950689657506
17.14952730250304
17.14953415319095
17.221582691144423
17.22158825981334
17.22160487472208
17.221632267549683
17.221670006728537
17.221717518449477
17.221774113690987
17.22183901596544
17.221911390313913
17.221990367126814
17.22207506340227
17.222164596614473
17.222258092239763
17.222354686682817
17.222453524180295
17.222553749194148
17.2226544970819
17.22275488308591
17.222853991838072
17.222950868986782
17.22304451643619
17.22313389343968
17.22321792292052
17.223295507117637
17.22336554952433
17.223426985006917
17.223478815699085
17.223520150210653
17.22355024350864
17.223568533350267
17.223574669602556
17.289438614923434
17.28944369607085
17.28945886297342
17.289483889637715
17.289518410774754
17.28956193708192
17.28961387530119
17.289673548831175
17.289740219971605
17.28981310836617
17.28989140833237
17.289974300742017
17.290060960364812
17.290150560138315
17.29024227083437
17.290335257282305
17.290428673498518
17.29052165652968
17.290613320812678
17.29070275429161
17.290789017394648
17.290871146634416
17.290948161936267
17.291019081163235
17.291082938820743
17.291138810585885
17.2911858415659
17.2912232763883
17.291250489290743
17.29126701121147
17.291272551363477
17.350905194051297
17.35090986288492
17.350923803801933
17.35094682274173
17.350978604672004
17.35101872487376
17.351066664068874
17.351121823934527
17.351183544417523
17.351251118173995
17.351323804853482
17.35140084132935
17.35148144871746
17.351564837463446
17.35165020893542
17.35173675442255
17.351823653535895
17.351910071630595
17.351995157719585
17.352078043812803
17.352157846475933
17.35223367200473
17.35230462415834
17.352369817462026
17.35242839316574
17.35247953936251
17.352522513460748
17.352556665555028
17.352581461442636
17.352596503068348
17.352601544649474
17.405960783068352
17.40596510365401
17.405978008145567
17.405999326782688
17.406028782954866
17.406066001672627
17.406110521184512
17.406161804836092
17.40621925478
17.406282223448553
17.406350025501446
17.406421946725715
17.406497250691277
17.40657518431629
17.406654980788623
17.4067358605522
17.406817032071785
17.406897691853707
17.40697702491924
17.40705420641917
17.407128404943915
17.407198788646365
17.407264533031803
17.40732483308501
17.40737891696275
17.40742606266656
17.407465616142357
17.40749700968924
17.40751977983845
17.407533583033462
17.40753820788519
17.454585527671338
17.45458955564829
17.4546015886675
17.454621475567055
17.45464896926623
17.45468373324501
17.454725350649994
17.4547733335265
17.454827133893232
17.454886153024383
17.454949751620024
17.45501725765447
17.455087972682527
17.455161177666824
17.455236136803958
17.455312099916554
17.455388304901764
17.455463979609995
17.45553834413316
17.455610613999454
17.455680004646922
17.455745738083152
17.45580705054358
17.455863203561243
17.45591349582667
17.455957277191708
17.455993963473258
17.456023051194382
17.45604413171782
17.456056903490605
17.456061181531418
17.496762295539696
17.4967660801303
17.496777387851736
17.49679608179796
17.496821937608036
17.496854648532036
17.49689383273768
17.49693904065481
17.496989764126692
17.497045444082698
17.497105479367534
17.49716923377182
17.497236042027026
17.497305215759898
17.497376047924618
17.497447816175477
17.49751978649604
17.49759121638609
17.49766135841584
17.497729464498356
17.497794791117197
17.497856606259752
17.497914196855508
17.497966878936232
17.498014008039043
17.49805499116091
17.498089299088612
17.49811647843232
17.498136163025787
17.498148083687706
17.498152075721578
17.532475829559193
17.53247941509336
17.53249012934748
17.53250784628934
17.532532358944735
17.532563383461934
17.53260056513219
17.532643484383716
17.532691664536628
17.532744578302808
17.53280165561359
17.53286229002498
17.53292584444874
17.532991657153232
17.533059046593518
17.533127315457143
17.533195755107187
17.53326364967447
17.533330280479017
17.533394931022926
17.533456892692058
17.533515471801927
17.533569996789897
17.533619827620907
17.533664365053404
17.53370306103878
17.53373542920957
17.533761054925353
17.533779604685584
17.533790834099577
17.53379459396107
17.561713458658055
17.56171688574875
17.56172712745019
17.56174406590032
17.561767507225213
17.561797184900605
17.561832764862732
17.56187385054658
17.561919989640607
17.561970679743837
17.56202537545891
17.562083494329112
17.562144422356294
17.562207520003092
17.562272127278067
17.562337568234305
17.562403155961455
17.562468197291338
17.562531997800775
17.562593867274323
17.56265312569337
17.5627091103035
17.562761182572547
17.562808736993915
17.562851209486556
17.562888086636573
17.5629189148356
17.562943308887025
17.562960959990583
17.562971642433578
17.562975218652777
17.584464758080824
17.58446806455888
17.58447794644027
17.584494291804432
17.584516916326017
17.584545566154663
17.584579922398337
17.584619605502823
17.584664181309016
17.58471316612201
17.584766033282012
17.584822218763414
17.584881126529122
17.584942134514115
17.58500459986832
17.58506786375074
17.58513125668065
17.58519410364625
17.5852557294851
17.585315464643518
17.585372651332236
17.585426650571065
17.58547684894843
17.58552266696694
17.58556356680922
17.58559906074626
17.585628719316944
17.58565217892082
17.585669148803948
17.585679416860533
17.585682853993088
17.600721476161553
17.600724697841517
17.60073432669874
17.600750254850524
17.600772304471814
17.60080023036318
17.60083372402531
17.60087241760997
17.60091588951935
17.600963669089154
17.601015242811272
17.60107005970526
17.601127536557335
17.60118706388067
17.60124801125085
17.601309732282374
17.601371570202037
17.601432863207794
17.60149295008135
17.601551176124747
17.601606899406573
17.60165949777131
17.60170837544947
17.60175297108273
17.60179276505741
17.601827287352073
17.601856125078037
17.601878929401614
17.6018954218723
17.601905399640803
17.601908739360443
17.610477859724757
17.61048103105331
17.61049050965136
17.61050618998055
17.610527897994317
17.610555393530692
17.610588374156627
17.610626478877407
17.610669293476917
17.61071635498165
17.610767157684382
17.610821158384162
17.61087778155684
17.610936425297773
17.61099646670508
17.611057266954585
17.61111817699337
17.611178543034217
17.61123771229313
17.611295039018984
17.611349890783238
17.61140165546105
17.611449747749006
17.611493617000782
17.61153275430928
17.611566700031123
17.611595050961302
17.611617466873533
17.611633676474753
17.61164348229282
17.611646764318486
17.61373036644721
17.613733521078593
17.61374294984578
17.6137585479792
17.613780142672077
17.61380749541686
17.613840305775085
17.613878215009056
17.613920811337906
17.61396763433096
17.614018180866584
17.614071910329013
17.614128249756384
17.614186599776954
17.614246340006986
17.614306834156757
17.614367435761952
17.614427493721113
17.614486358072288
17.614543386051636
17.61459794839592
17.614649436312963
17.61469726796837
17.614740896258258
17.614779815809094
17.614813570396645
17.614841760001514
17.614864047225453
17.614880163124774
17.614889911991035
17.614893174909156
