# vtk DataFile Version 2.0
Unstructured Grid Example
ASCII
DATASET UNSTRUCTURED_GRID

POINTS 961 float
0.400000004 0.01999999956 0
0.3866666556 0.01999999956 0
0.3733333348 0.01999999956 0
0.3600000144 0.01999999956 0
0.346666664 0.01999999956 0
0.3333333432 0.01999999956 0
0.3199999928 0.01999999956 0
0.3066666724 0.01999999956 0
0.293333322 0.01999999956 0
0.2800000012 0.01999999956 0
0.2666666804 0.01999999956 0
0.25333333 0.01999999956 0
0.2399999948 0.01999999956 0
0.226666674 0.01999999956 0
0.2133333384 0.01999999956 0
0.2000000028 0.01999999956 0
0.1866666676 0.01999999956 0
0.173333332 0.01999999956 0
0.1599999964 0.01999999956 0
0.1466666608 0.01999999956 0
0.1333333404 0.01999999956 0
0.1199999972 0.01999999956 0
0.1066666692 0.01999999956 0
0.0933333336 0.01999999956 0
0.0799999984 0.01999999956 0
0.06666667 0.01999999956 0
0.0533333348 0.01999999956 0
0.03999999912 0.01999999956 0
0.02666666732 0.01999999956 0
0.01333333364 0.01999999956 0
0.0 0.01999999956 0
0.400000004 0.00666666684 0
0.3866666556 0.00666666684 0
0.3733333348 0.00666666684 0
0.3600000144 0.00666666684 0
0.346666664 0.00666666684 0
0.3333333432 0.00666666684 0
0.3199999928 0.00666666684 0
0.3066666724 0.00666666684 0
0.293333322 0.00666666684 0
0.2800000012 0.00666666684 0
0.2666666804 0.00666666684 0
0.25333333 0.00666666684 0
0.2399999948 0.00666666684 0
0.226666674 0.00666666684 0
0.2133333384 0.00666666684 0
0.2000000028 0.00666666684 0
0.1866666676 0.00666666684 0
0.173333332 0.00666666684 0
0.1599999964 0.00666666684 0
0.1466666608 0.00666666684 0
0.1333333404 0.00666666684 0
0.1199999972 0.00666666684 0
0.1066666692 0.00666666684 0
0.0933333336 0.00666666684 0
0.0799999984 0.00666666684 0
0.06666667 0.00666666684 0
0.0533333348 0.00666666684 0
0.03999999912 0.00666666684 0
0.02666666732 0.00666666684 0
0.01333333364 0.00666666684 0
0.0 0.00666666684 0
0.400000004 -0.00666666684 0
0.3866666556 -0.00666666684 0
0.3733333348 -0.00666666684 0
0.3600000144 -0.00666666684 0
0.346666664 -0.00666666684 0
0.3333333432 -0.00666666684 0
0.3199999928 -0.00666666684 0
0.3066666724 -0.00666666684 0
0.293333322 -0.00666666684 0
0.2800000012 -0.00666666684 0
0.2666666804 -0.00666666684 0
0.25333333 -0.00666666684 0
0.2399999948 -0.00666666684 0
0.226666674 -0.00666666684 0
0.2133333384 -0.00666666684 0
0.2000000028 -0.00666666684 0
0.1866666676 -0.00666666684 0
0.173333332 -0.00666666684 0
0.1599999964 -0.00666666684 0
0.1466666608 -0.00666666684 0
0.1333333404 -0.00666666684 0
0.1199999972 -0.00666666684 0
0.1066666692 -0.00666666684 0
0.0933333336 -0.00666666684 0
0.0799999984 -0.00666666684 0
0.06666667 -0.00666666684 0
0.0533333348 -0.00666666684 0
0.03999999912 -0.00666666684 0
0.02666666732 -0.00666666684 0
0.01333333364 -0.00666666684 0
0.0 -0.00666666684 0
0.400000004 -0.01999999956 0
0.3866666556 -0.01999999956 0
0.3733333348 -0.01999999956 0
0.3600000144 -0.01999999956 0
0.346666664 -0.01999999956 0
0.3333333432 -0.01999999956 0
0.3199999928 -0.01999999956 0
0.3066666724 -0.01999999956 0
0.293333322 -0.01999999956 0
0.2800000012 -0.01999999956 0
0.2666666804 -0.01999999956 0
0.25333333 -0.01999999956 0
0.2399999948 -0.01999999956 0
0.226666674 -0.01999999956 0
0.2133333384 -0.01999999956 0
0.2000000028 -0.01999999956 0
0.1866666676 -0.01999999956 0
0.173333332 -0.01999999956 0
0.1599999964 -0.01999999956 0
0.1466666608 -0.01999999956 0
0.1333333404 -0.01999999956 0
0.1199999972 -0.01999999956 0
0.1066666692 -0.01999999956 0
0.0933333336 -0.01999999956 0
0.0799999984 -0.01999999956 0
0.06666667 -0.01999999956 0
0.0533333348 -0.01999999956 0
0.03999999912 -0.01999999956 0
0.02666666732 -0.01999999956 0
0.01333333364 -0.01999999956 0
0.0 -0.01999999956 0
0.400000004 -0.03333333508 0
0.3866666556 -0.03333333508 0
0.3733333348 -0.03333333508 0
0.3600000144 -0.03333333508 0
0.346666664 -0.03333333508 0
0.3333333432 -0.03333333508 0
0.3199999928 -0.03333333508 0
0.3066666724 -0.03333333508 0
0.293333322 -0.03333333508 0
0.2800000012 -0.03333333508 0
0.2666666804 -0.03333333508 0
0.25333333 -0.03333333508 0
0.2399999948 -0.03333333508 0
0.226666674 -0.03333333508 0
0.2133333384 -0.03333333508 0
0.2000000028 -0.03333333508 0
0.1866666676 -0.03333333508 0
0.173333332 -0.03333333508 0
0.1599999964 -0.03333333508 0
0.1466666608 -0.03333333508 0
0.1333333404 -0.03333333508 0
0.1199999972 -0.03333333508 0
0.1066666692 -0.03333333508 0
0.0933333336 -0.03333333508 0
0.0799999984 -0.03333333508 0
0.06666667 -0.03333333508 0
0.0533333348 -0.03333333508 0
0.03999999912 -0.03333333508 0
0.02666666732 -0.03333333508 0
0.01333333364 -0.03333333508 0
0.0 -0.03333333508 0
0.400000004 -0.0466666668 0
0.3866666556 -0.0466666668 0
0.3733333348 -0.0466666668 0
0.3600000144 -0.0466666668 0
0.346666664 -0.0466666668 0
0.3333333432 -0.0466666668 0
0.3199999928 -0.0466666668 0
0.3066666724 -0.0466666668 0
0.293333322 -0.0466666668 0
0.2800000012 -0.0466666668 0
0.2666666804 -0.0466666668 0
0.25333333 -0.0466666668 0
0.2399999948 -0.0466666668 0
0.226666674 -0.0466666668 0
0.2133333384 -0.0466666668 0
0.2000000028 -0.0466666668 0
0.1866666676 -0.0466666668 0
0.173333332 -0.0466666668 0
0.1599999964 -0.0466666668 0
0.1466666608 -0.0466666668 0
0.1333333404 -0.0466666668 0
0.1199999972 -0.0466666668 0
0.1066666692 -0.0466666668 0
0.0933333336 -0.0466666668 0
0.0799999984 -0.0466666668 0
0.06666667 -0.0466666668 0
0.0533333348 -0.0466666668 0
0.03999999912 -0.0466666668 0
0.02666666732 -0.0466666668 0
0.01333333364 -0.0466666668 0
0.0 -0.0466666668 0
0.400000004 -0.0599999988 0
0.3866666556 -0.0599999988 0
0.3733333348 -0.0599999988 0
0.3600000144 -0.0599999988 0
0.346666664 -0.0599999988 0
0.3333333432 -0.0599999988 0
0.3199999928 -0.0599999988 0
0.3066666724 -0.0599999988 0
0.293333322 -0.0599999988 0
0.2800000012 -0.0599999988 0
0.2666666804 -0.0599999988 0
0.25333333 -0.0599999988 0
0.2399999948 -0.0599999988 0
0.226666674 -0.0599999988 0
0.2133333384 -0.0599999988 0
0.2000000028 -0.0599999988 0
0.1866666676 -0.0599999988 0
0.173333332 -0.0599999988 0
0.1599999964 -0.0599999988 0
0.1466666608 -0.0599999988 0
0.1333333404 -0.0599999988 0
0.1199999972 -0.0599999988 0
0.1066666692 -0.0599999988 0
0.0933333336 -0.0599999988 0
0.0799999984 -0.0599999988 0
0.06666667 -0.0599999988 0
0.0533333348 -0.0599999988 0
0.03999999912 -0.0599999988 0
0.02666666732 -0.0599999988 0
0.01333333364 -0.0599999988 0
0.0 -0.0599999988 0
0.400000004 -0.0733333304 0
0.3866666556 -0.0733333304 0
0.3733333348 -0.0733333304 0
0.3600000144 -0.0733333304 0
0.346666664 -0.0733333304 0
0.3333333432 -0.0733333304 0
0.3199999928 -0.0733333304 0
0.3066666724 -0.0733333304 0
0.293333322 -0.0733333304 0
0.2800000012 -0.0733333304 0
0.2666666804 -0.0733333304 0
0.25333333 -0.0733333304 0
0.2399999948 -0.0733333304 0
0.226666674 -0.0733333304 0
0.2133333384 -0.0733333304 0
0.2000000028 -0.0733333304 0
0.1866666676 -0.0733333304 0
0.173333332 -0.0733333304 0
0.1599999964 -0.0733333304 0
0.1466666608 -0.0733333304 0
0.1333333404 -0.0733333304 0
0.1199999972 -0.0733333304 0
0.1066666692 -0.0733333304 0
0.0933333336 -0.0733333304 0
0.0799999984 -0.0733333304 0
0.06666667 -0.0733333304 0
0.0533333348 -0.0733333304 0
0.03999999912 -0.0733333304 0
0.02666666732 -0.0733333304 0
0.01333333364 -0.0733333304 0
0.0 -0.0733333304 0
0.400000004 -0.086666666 0
0.3866666556 -0.086666666 0
0.3733333348 -0.086666666 0
0.3600000144 -0.086666666 0
0.346666664 -0.086666666 0
0.3333333432 -0.086666666 0
0.3199999928 -0.086666666 0
0.3066666724 -0.086666666 0
0.293333322 -0.086666666 0
0.2800000012 -0.086666666 0
0.2666666804 -0.086666666 0
0.25333333 -0.086666666 0
0.2399999948 -0.086666666 0
0.226666674 -0.086666666 0
0.2133333384 -0.086666666 0
0.2000000028 -0.086666666 0
0.1866666676 -0.086666666 0
0.173333332 -0.086666666 0
0.1599999964 -0.086666666 0
0.1466666608 -0.086666666 0
0.1333333404 -0.086666666 0
0.1199999972 -0.086666666 0
0.1066666692 -0.086666666 0
0.0933333336 -0.086666666 0
0.0799999984 -0.086666666 0
0.06666667 -0.086666666 0
0.0533333348 -0.086666666 0
0.03999999912 -0.086666666 0
0.02666666732 -0.086666666 0
0.01333333364 -0.086666666 0
0.0 -0.086666666 0
0.400000004 -0.1000000016 0
0.3866666556 -0.1000000016 0
0.3733333348 -0.1000000016 0
0.3600000144 -0.1000000016 0
0.346666664 -0.1000000016 0
0.3333333432 -0.1000000016 0
0.3199999928 -0.1000000016 0
0.3066666724 -0.1000000016 0
0.293333322 -0.1000000016 0
0.2800000012 -0.1000000016 0
0.2666666804 -0.1000000016 0
0.25333333 -0.1000000016 0
0.2399999948 -0.1000000016 0
0.226666674 -0.1000000016 0
0.2133333384 -0.1000000016 0
0.2000000028 -0.1000000016 0
0.1866666676 -0.1000000016 0
0.173333332 -0.1000000016 0
0.1599999964 -0.1000000016 0
0.1466666608 -0.1000000016 0
0.1333333404 -0.1000000016 0
0.1199999972 -0.1000000016 0
0.1066666692 -0.1000000016 0
0.0933333336 -0.1000000016 0
0.0799999984 -0.1000000016 0
0.06666667 -0.1000000016 0
0.0533333348 -0.1000000016 0
0.03999999912 -0.1000000016 0
0.02666666732 -0.1000000016 0
0.01333333364 -0.1000000016 0
0.0 -0.1000000016 0
0.400000004 -0.1133333372 0
0.3866666556 -0.1133333372 0
0.3733333348 -0.1133333372 0
0.3600000144 -0.1133333372 0
0.346666664 -0.1133333372 0
0.3333333432 -0.1133333372 0
0.3199999928 -0.1133333372 0
0.3066666724 -0.1133333372 0
0.293333322 -0.1133333372 0
0.2800000012 -0.1133333372 0
0.2666666804 -0.1133333372 0
0.25333333 -0.1133333372 0
0.2399999948 -0.1133333372 0
0.226666674 -0.1133333372 0
0.2133333384 -0.1133333372 0
0.2000000028 -0.1133333372 0
0.1866666676 -0.1133333372 0
0.173333332 -0.1133333372 0
0.1599999964 -0.1133333372 0
0.1466666608 -0.1133333372 0
0.1333333404 -0.1133333372 0
0.1199999972 -0.1133333372 0
0.1066666692 -0.1133333372 0
0.0933333336 -0.1133333372 0
0.0799999984 -0.1133333372 0
0.06666667 -0.1133333372 0
0.0533333348 -0.1133333372 0
0.03999999912 -0.1133333372 0
0.02666666732 -0.1133333372 0
0.01333333364 -0.1133333372 0
0.0 -0.1133333372 0
0.400000004 -0.1266666652 0
0.3866666556 -0.1266666652 0
0.3733333348 -0.1266666652 0
[...]
POINT_DATA 961
SCALARS Temp float 1
LOOKUP_TABLE default
0.7796370092262018
0.8108155136508081
0.8332739336671289
0.849683210978714
0.8617801874432669
0.8707560546652353
0.8774592923293424
0.8825011875567862
0.8863273470690314
0.8892650177085651
0.891557629675318
0.8933887280106466
0.8948994271731935
0.8962020015350417
0.89739001506289
0.8985463498242235
0.8997505639445669
0.9010856502957851
0.9026451389992096
0.9045412265197474
0.9069146795410871
0.9099478878458684
0.9138814943804472
0.9190380585640978
0.9258538166477399
0.9349237867927979
0.9470660624087468
0.963415931750552
0.9855694748150581
1.0158421416946875
1.0579175560953642
0.822340414022498
0.8529081632653335
0.8751264039045241
0.8914459815475057
0.9035014552965117
0.9124600266341188
0.9191578136719639
0.9242002075029288
0.9280297259597685
0.9309720012321332
0.9332696275608927
0.935105749704659
0.9366213322728892
0.9379286340360808
0.939121277921624
0.9402822486531853
0.9414912224373823
0.94283130856511
0.9443961316956688
0.9462979314064414
0.9486774195381935
0.9517167443419254
0.9556559869394046
0.9608165556325287
0.9676324826571521
0.976694615355037
0.9888130642691624
1.005106670056682
1.0271371910420115
1.0571027640748434
1.0981808937456194
2.8212271081205564
2.825794147476152
2.838523273929333
2.8503156816338335
2.860122315875779
2.867980318991536
2.8741875004756663
2.8790682676281394
2.8829116121412546
2.88595825057922
2.8884036973585183
2.890405886075227
2.892093498714837
2.893573782508904
2.8949395123563217
2.896275217413818
2.8976629743580222
2.8991880869348514
2.9009449584154985
2.9030435208907788
2.9056165776636047
2.9088282967509627
2.9128839822135304
2.918040715502867
2.924617105067222
2.9329968582404513
2.943611006248317
2.9568536741887104
2.9727671782752694
2.9899210570390533
2.9960795028149065
4.7945412901897
4.797041213039525
4.8031878322699395
4.810890173164676
4.818230122264779
4.824635696677374
4.830008607046668
4.834431099380263
4.8380439848914865
4.840997115052637
4.8434303716979095
4.845467854148128
4.8472179456024005
4.848775923530915
4.850227563515298
4.851653113953013
4.853131422516594
4.854744142009088
4.856580044574597
4.858739447838036
4.86133864529543
4.8645140099097715
4.868424802706311
4.8732527485899375
4.879193743215517
4.886431740989671
4.895071801638689
4.904975439689969
4.915365386246666
4.9236548310736685
4.927024956254434
6.761601557603478
6.762939109139332
6.766558344972614
6.771472294924347
6.77672790492462
6.7816962135943815
6.786115418871065
6.789920559074505
6.79314316384213
6.795856773378778
6.7981493744906905
6.800110207710317
6.801824300695744
6.8033711155662155
6.804825324901452
6.806258704295513
6.807742601459837
6.809350640791433
6.811161443596541
6.813261104887545
6.815745010068657
6.818718258978347
6.822293239523391
6.8265818286481235
6.831677231862386
6.837616459844346
6.844306818968381
6.851390525552899
6.858015977250874
6.862896027957053
6.864699569938173
8.724746241569562
8.725565360838122
8.727834720320189
8.73109220466752
8.734802263359391
8.738536461342603
8.742031651731676
8.74516733577198
8.747913561023346
8.750291498592476
8.752348411487114
8.754143052603881
8.75573786051934
8.757195351454822
8.758576980616148
8.75994344059194
8.761355748244151
8.762876644545907
8.764571942920481
8.76651141842488
8.768768673046436
8.771419122966515
8.774534650323378
8.778172744495825
8.782356525039239
8.787040727041644
8.792058539554063
8.797051361838406
8.801438576338185
8.804496123495067
8.80559989056909
10.68514105960842
10.68566593834295
10.687147519428017
10.689343247827255
10.691949523244569
10.694688391641925
10.69735738462471
10.699836778465551
10.702073658298838
10.704060309431448
10.705816604138004
10.707377760920835
10.70878670699987
10.71008978984574
10.711334698579972
10.712569780618523
10.713844161104493
10.715208178616754
10.71671373316358
10.718414102956892
10.7203626640304
10.722609747151743
10.725196490799796
10.728144295111823
10.73143810265206
10.735002456171388
10.738672367722106
10.742171787239856
10.745123548111758
10.74711658361512
10.747822857592013
12.643305926680984
12.64364635723781
12.644617967107331
12.646088121954449
12.647881422094983
12.649824157850382
12.651775649797308
12.6536405867714
12.65536660496657
12.656934853779457
12.658349619087446
12.65962975302318
12.660802592809222
12.661900101276224
12.662956657178885
12.664007970688267
12.66509067568795
12.666242187890457
12.667500468309271
12.66890330056055
12.670486613487974
12.672281279863205
12.674307657171557
12.676567218628648
12.679030847237001
12.681624706411721
12.684217518856524
12.686617251543435
12.688587835217668
12.689891422464248
12.690348369044601
14.599507561872874
14.599719610765398
14.600329325836292
14.601264871972301
14.60242797062594
14.603716259958954
14.60504122994737
14.606337687433186
14.607565339351767
14.608705349557365
14.60975507022232
14.610722913077616
14.611624289589345
14.612478788127438
14.6133083861584
14.61413642110887
14.614987036703502
14.615884815031416
14.616854330305877
14.617919339317352
14.619101285379296
14.620416762354159
14.621873549820021
14.62346503786982
14.625163217991158
14.626911489569636
14.628620017026204
14.630167823736226
14.631415602107213
14.632229893069752
14.632513266080657
16.55388675377817
16.553999619287204
16.55432607655086
16.554832774923494
16.555473085872748
16.556196856027118
16.55695881463896
16.557723690590848
16.558467871846563
16.55917850807753
16.559851386027624
16.560488547153355
16.561096226809866
16.56168331507142
16.562260303605804
16.562838611951154
16.563430160902072
16.564047040483427
16.56470113137444
16.565403527529796
16.566163594834645
16.56698750292177
16.567876075977082
16.56882197263736
16.569806431276515
16.57079636139121
16.571743138202073
16.572584817736292
16.57325306270168
16.573684476635272
16.573833772508323
18.506523785831952
18.506550672308524
18.506629901543782
18.506757437795226
18.50692732192472
18.507132575638888
18.507366097228598
18.507621357193536
18.507892828395626
18.508176147917002
18.508468094893875
18.5087664484992
18.509069796248024
18.509377338226606
18.50968870005039
18.510003761391356
18.510322500414706
18.510644840339534
18.510970488695964
18.51129875787086
18.511628357731563
18.511957160379914
18.51228193951551
18.5125981249503
18.512899616976608
18.51317875693333
18.513426557057375
18.51363327931826
18.513789383807456
18.513886737268777
18.51391983789779
18.615448066739553
18.615470953823834
18.615538631795648
18.61564829979557
18.615795744137696
18.61597589231692
18.61618339281549
18.616413102301475
18.616660430867984
18.616921519276772
18.617193288183
18.617473386302397
18.617760082218126
18.61805213425388
18.61834865010282
18.61864894626524
18.618952412906324
18.61925837672417
18.619565958720358
18.619873922167436
18.62018050849092
18.620483267345687
18.62077888781095
18.62106306783296
18.621330452424623
18.621574702655657
18.621788746664855
18.621965245205317
18.62209725841445
18.622179028645107
18.622206732520542
18.724234365987897
18.72425428920212
18.724313358235005
18.72440956202039
18.724539828411842
18.724700374092738
18.724887087142783
18.725095867488143
18.72532289227781
18.725564776104942
18.72581864581593
18.726082136671156
18.726353337164092
18.726630706735214
18.72691297453444
18.727199029325238
18.72748780853406
18.72777818303365
18.72806883876612
18.72835815490775
18.72864408030861
18.72892401696457
18.72919471755167
18.729452227628762
18.72969189004275
18.72990845005818
18.730096283798535
18.730249757242742
18.73036369489084
18.73043389708793
18.73045761666077
18.832888393953912
18.832906084432402
18.832958639444175
18.833044567031894
18.833161558495892
18.833306715537528
18.833476807710344
18.83366851149235
18.8338786105975
18.834104129770694
18.83434241306798
18.83459114319165
18.834848318326493
18.83511220308302
18.835381258050532
18.83565405676955
18.835929198773474
18.83620521747922
18.836480486467572
18.836753126365515
18.83702091597401
18.83728121670494
18.83753091567356
18.8377664115781
18.837983651277273
18.838178240816546
18.83834563856137
18.83848142748691
18.838581647131285
18.83864314273457
18.838663876309948
18.941414391777407
18.941430384243343
18.941477968056887
18.941555999844773
18.941662690614713
18.94179575699942
18.94195259805097
18.942130464685537
18.94232661017234
18.942538397749495
18.942763372921547
18.942999292278973
18.943244118857073
18.943495995451197
18.943753197444373
18.94401407235221
18.944276974467346
18.944540194366592
18.944801887966964
18.945060008501024
18.94531224564021
18.9455559800858
18.945788256875417
18.94600579624375
18.946205043519903
18.946382272991485
18.946533746028148
18.946655917117486
18.946745672070225
18.946800568962622
18.946819046973907
19.04981550240217
19.04983020158084
19.04987398885269
19.049945958565782
19.05004467999679
19.050168300599093
19.05031467006052
19.050481461972314
19.05066628738682
19.05086677999564
19.05108065937746
19.05130576225068
19.051540048088235
19.051781587176997
19.052028530561135
19.052279067596043
19.052531378841433
19.052783584317332
19.053033692133138
19.053279551170082
19.05351881190282
19.053748902565182
19.053967022003626
19.054170164114772
19.05435517133315
19.054518827007914
19.054657983579485
19.054769719688007
19.05485151423393
19.05490141681529
19.054918192072442
19.153938608718832
19.153952251248217
19.15399292676909
19.154059896476625
19.154151983562357
19.15426764535751
19.15440506224682
19.154562226271644
19.154737027554287
19.154927321334547
19.155130981886522
19.155345932785302
19.15557015785003
19.15580169875815
19.156038637372003
19.15627906728531
19.15652106153521
19.156762636385324
19.15700171602804
19.157236101712297
19.157463448890553
19.15768125843342
19.157886881752994
19.158077551891658
19.158250435702023
19.158402714069467
19.158531685751413
19.15863488855322
19.158710228985008
19.15875610579292
19.158771512539605
19.249642979082687
19.249655666346563
19.249693518466426
19.249755918765654
19.249841878115
19.249950086361142
19.25007897725595
19.250226793809667
19.250391654670246
19.25057160681701
19.25076467092476
19.25096886913426
19.251182238441665
19.251402834391616
19.251628722270947
19.25185795934781
19.252088574300885
19.252318543467467
19.252545768332357
19.252768057345435
19.25298311504184
19.253188543449856
19.253381854546966
19.25356050376327
19.253721938440908
19.25386366656031
19.25398334099934
19.254078853980687
19.25414843527547
19.254190743621578
19.254204941373857
19.336994452597242
19.337006254082745
19.337041480626553
19.337099607445815
19.3371797879125
19.337280890916155
19.337401549156
19.33754020799298
19.33769517700737
19.33786467156153
19.338046850824114
19.338239842587246
19.338441757479913
19.338650696428445
19.33886474810477
19.33908197916561
19.3393004226814
19.33951806407248
19.339732828446024
19.33994257192093
19.340145079298708
19.340338072156477
19.34051922540086
19.340686200777178
19.34083669073085
19.340968476987346
19.341079499288284
19.341167929886595
19.341232249180297
19.341271314734797
19.34128441683699
19.416115117600775
19.416126085530163
19.416158835862113
19.416212914870766
19.416287587055283
19.416381862781627
19.416494534853793
19.416624215540285
19.416769377127977
19.416928384928134
19.417099529211182
19.41728104712142
19.417471136831754
19.417667967241258
19.417869679756695
19.41807438439754
19.418280154957383
19.41848502225907
19.418686968859863
19.418883927300655
19.419073783708665
19.41925439008244
19.419423582854364
19.419579215099432
19.4197191957022
19.419841539283308
19.419944422691977
19.4200262445052
19.420085684240405
19.420121755473
19.420133848057926
19.48717575266404
19.48718593209482
19.487216336255837
19.48726656778399
19.487335980020863
19.48742369782706
19.487528645774077
19.487649576613524
19.48778510361236
19.487933727006858
19.488093860974455
19.48826385291319
19.488441997083363
19.488626545531083
19.488815712802502
19.489007676258502
19.48920057614334
19.48939251422179
19.4895815538435
19.48976572308739
19.489943022335822
19.490111439006643
19.490268966798713
19.49041363595029
19.490543547986768
19.49065691839376
19.490752123450335
19.490827748358264
19.490882634338213
19.490915920253098
19.490927075335463
19.5503864638621
19.55039589951493
19.55042408795366
19.550470677506596
19.550535094051774
19.550616556966403
19.55071410124615
19.550826599723738
19.550952789222734
19.55109129199786
19.551240638697223
19.55139928534475
19.551565626257563
19.55173800553268
19.551914723681477
19.552094040892815
19.552274180580536
19.55245333187009
19.552629653446168
19.55280128004073
19.55296633254165
19.553122933973018
19.553269228605668
19.553403410003952
19.553523751785512
19.553628644268436
19.553716633661082
19.553786461490372
19.55383710263572
19.553867798509145
19.55387808289718
19.60598634414531
19.605995084816826
19.60602120113452
19.606064379071128
19.60612410464285
19.606199676347615
19.60629022282983
19.606394720494613
19.606512014980385
19.606640838758633
19.606779830870714
19.606927551953696
19.60708249636083
19.607243103784224
19.607407767086723
19.607574837570464
19.607742630913123
19.60790943232555
19.60807350298039
19.60823308868779
19.608386431509384
19.608531786185317
19.60866743863098
19.608791731741306
19.608903092642844
19.609000064360625
19.60908133893883
19.609145790153566
19.609192504687126
19.609220809015838
19.609230290178157
19.65423120028013
19.65423930147091
19.654263509978076
19.654303543067833
19.654358937016447
19.654429056989272
19.654513111405823
19.65461016613944
19.65471916242541
19.6548389315164
19.654968211832404
19.6551056623455
19.65524987390991
19.655399380756535
19.655552669016053
19.65570818330157
19.65586433422347
19.656019505335003
19.65617206125031
19.65632035767009
19.656462753785753
19.656597628640824
19.6567233987642
19.65683854183846
19.656941620924883
19.657031312034217
19.65710643241895
19.657165968071435
19.65720909965766
19.65723522466312
19.65724397437382
19.695382550084076
19.695390075280415
19.695412564625407
19.69544976140595
19.69550124387487
19.695566433252342
19.695644605632452
19.695734903641817
19.69583635162751
19.69594786805777
19.69606828060763
19.696196338185835
19.69633072152764
19.696470054411886
19.69661291253165
19.69675783089725
19.69690331234394
19.697047835623327
19.69718986456937
19.69732785888764
19.69746028687367
19.69758564140791
19.697702456632015
19.697809329671465
19.69790494229479
19.697988085141134
19.698057682178447
19.6981128141445
19.698152740459324
19.698176917774155
19.698185014103437
19.729694973464692
19.729701994447048
19.729722978397877
19.729757690021295
19.729805742242917
19.729866602833134
19.72993960448241
19.73002395457266
19.730118748296807
19.7302229793435
19.73033555335179
19.7304552988339
19.730580977112005
19.730711293191334
19.730844904757184
19.730980430056675
19.73111645699131
19.731251551902748
19.73138426934267
19.731513163234403
19.731636799610477
19.731753772094493
19.73186271763558
19.731962336527776
19.73205141194079
19.732128831455448
19.732193608502556
19.732244902663627
19.73228203850518
19.73230452140124
19.73231204952118
19.75740560055453
19.75741219698218
19.757431913087036
19.75746453078931
19.757509690963
19.7575668990569
19.757635533820007
19.75771485568692
19.75780401834652
19.75790207813995
19.75800800625263
19.75812069876183
19.75823898601749
19.758361643164623
19.75848739913707
19.758614944793166
19.7587429423222
19.758870034420873
19.75899485437568
19.759116037353998
19.759232233001203
19.759342120376143
19.75944442283376
19.759537926617583
19.75962149867753
19.759694106087785
19.759754835153043
19.75980290931656
19.759837705670346
19.759858768735686
19.759865820854003
19.778723575514455
19.778729834008995
19.778748540786694
19.778779491014344
19.778822347114904
19.778876643678228
19.778941795219453
19.7790171035751
19.779101768344567
19.7791948953544
19.779295507908806
19.779402556172844
19.779514926109403
19.779631449688676
19.779750913816283
19.77987206858502
19.77999363682803
19.78011432349392
19.780232825864577
19.78034784484401
19.78045809735491
19.780562330775417
19.78065933711322
19.780747970469264
19.780827163540625
19.780895945439905
19.780953459065607
19.780998977248295
19.781031917561847
19.781051854620316
19.78105852931399
19.793821156265913
19.79382716914917
19.793845142265265
19.79387488018419
19.793916060647863
19.793968239007945
19.794030855333663
19.79410324114526
19.794184629089422
19.79427416076997
19.794370897345807
19.79447382844796
19.79458188079362
19.794693928151233
19.794808800189628
19.794925290770777
19.79504216755741
19.79515818147587
19.795272076975493
19.7953826032628
19.79548852650834
19.795588643889808
19.795681797236863
19.79576688967943
19.79584290121991
19.79590890543543
19.795964085646947
19.796007749856177
19.796039344396554
19.79605846522163
19.796064866358872
19.802826839681234
19.80283270348017
19.80285023123954
19.8028792331527
19.802919396131387
19.8029702879724
19.803031364090508
19.803101973870497
19.80318136989806
19.80326871542259
19.803363094571505
19.80346352099049
19.80356894626152
19.803678269713323
19.803790347210498
19.80390399945471
19.804018021605362
19.80413119277409
19.804242286287465
19.804350080868115
19.804453372709567
19.80455098926895
19.804641802585284
19.804724745435003
19.804798826349206
19.804863145654846
19.80491691093781
19.804959451272815
19.804990230198236
19.805008856418652
19.80501509180521
19.80581980200196
19.80582561581772
19.80584299425861
19.805871749389837
19.805911571176832
19.80596203156371
19.806022591083504
19.80609260508594
19.806171332822192
19.806257944787422
19.806351532808314
19.806451118591376
19.806555662075514
19.8066640711895
19.806775210619076
19.806887910108234
19.807000974081085
19.807113191143454
19.80722334434323
19.80733022233027
19.80743263138452
19.807529409122722
19.80761943770663
19.807701659833466
19.80777509356887
19.807838848169258
19.80789213931184
19.80793430309191
19.807964808775417
19.80798326930941
19.807989449173725
