# vtk DataFile Version 2.0
Unstructured Grid Example
ASCII
DATASET UNSTRUCTURED_GRID

POINTS 961 float
0.400000004 0.01999999956 0
0.3866666556 0.01999999956 0
0.3733333348 0.01999999956 0
0.3600000144 0.01999999956 0
0.346666664 0.01999999956 0
0.3333333432 0.01999999956 0
0.3199999928 0.01999999956 0
0.3066666724 0.01999999956 0
0.293333322 0.01999999956 0
0.2800000012 0.01999999956 0
0.2666666804 0.01999999956 0
0.25333333 0.01999999956 0
0.2399999948 0.01999999956 0
0.226666674 0.01999999956 0
0.2133333384 0.01999999956 0
0.2000000028 0.01999999956 0
0.1866666676 0.01999999956 0
0.173333332 0.01999999956 0
0.1599999964 0.01999999956 0
0.1466666608 0.01999999956 0
0.1333333404 0.01999999956 0
0.1199999972 0.01999999956 0
0.1066666692 0.01999999956 0
0.0933333336 0.01999999956 0
0.0799999984 0.01999999956 0
0.06666667 0.01999999956 0
0.0533333348 0.01999999956 0
0.03999999912 0.01999999956 0
0.02666666732 0.01999999956 0
0.01333333364 0.01999999956 0
0.0 0.01999999956 0
0.400000004 0.00666666684 0
0.3866666556 0.00666666684 0
0.3733333348 0.00666666684 0
0.3600000144 0.00666666684 0
0.346666664 0.00666666684 0
0.3333333432 0.00666666684 0
0.3199999928 0.00666666684 0
0.3066666724 0.00666666684 0
0.293333322 0.00666666684 0
0.2800000012 0.00666666684 0
0.2666666804 0.00666666684 0
0.25333333 0.00666666684 0
0.2399999948 0.00666666684 0
0.226666674 0.00666666684 0
0.2133333384 0.00666666684 0
0.2000000028 0.00666666684 0
0.1866666676 0.00666666684 0
0.173333332 0.00666666684 0
0.1599999964 0.00666666684 0
0.1466666608 0.00666666684 0
0.1333333404 0.00666666684 0
0.1199999972 0.00666666684 0
0.1066666692 0.00666666684 0
0.0933333336 0.00666666684 0
0.0799999984 0.00666666684 0
0.06666667 0.00666666684 0
0.0533333348 0.00666666684 0
0.03999999912 0.00666666684 0
0.02666666732 0.00666666684 0
0.01333333364 0.00666666684 0
0.0 0.00666666684 0
0.400000004 -0.00666666684 0
0.3866666556 -0.00666666684 0
0.3733333348 -0.00666666684 0
0.3600000144 -0.00666666684 0
0.346666664 -0.00666666684 0
0.3333333432 -0.00666666684 0
0.3199999928 -0.00666666684 0
0.3066666724 -0.00666666684 0
0.293333322 -0.00666666684 0
0.2800000012 -0.00666666684 0
0.2666666804 -0.00666666684 0
0.25333333 -0.00666666684 0
0.2399999948 -0.00666666684 0
0.226666674 -0.00666666684 0
0.2133333384 -0.00666666684 0
0.2000000028 -0.00666666684 0
0.1866666676 -0.00666666684 0
0.173333332 -0.00666666684 0
0.1599999964 -0.00666666684 0
0.1466666608 -0.00666666684 0
0.1333333404 -0.00666666684 0
0.1199999972 -0.00666666684 0
0.1066666692 -0.00666666684 0
0.0933333336 -0.00666666684 0
0.0799999984 -0.00666666684 0
0.06666667 -0.00666666684 0
0.0533333348 -0.00666666684 0
0.03999999912 -0.00666666684 0
0.02666666732 -0.00666666684 0
0.01333333364 -0.00666666684 0
0.0 -0.00666666684 0
0.400000004 -0.01999999956 0
0.3866666556 -0.01999999956 0
0.3733333348 -0.01999999956 0
0.3600000144 -0.01999999956 0
0.346666664 -0.01999999956 0
0.3333333432 -0.01999999956 0
0.3199999928 -0.01999999956 0
0.3066666724 -0.01999999956 0
0.293333322 -0.01999999956 0
0.2800000012 -0.01999999956 0
0.2666666804 -0.01999999956 0
0.25333333 -0.01999999956 0
0.2399999948 -0.01999999956 0
0.226666674 -0.01999999956 0
0.2133333384 -0.01999999956 0
0.2000000028 -0.01999999956 0
0.1866666676 -0.01999999956 0
0.173333332 -0.01999999956 0
0.1599999964 -0.01999999956 0
0.1466666608 -0.01999999956 0
0.1333333404 -0.01999999956 0
0.1199999972 -0.01999999956 0
0.1066666692 -0.01999999956 0
0.0933333336 -0.01999999956 0
0.0799999984 -0.01999999956 0
0.06666667 -0.01999999956 0
0.0533333348 -0.01999999956 0
0.03999999912 -0.01999999956 0
0.02666666732 -0.01999999956 0
0.01333333364 -0.01999999956 0
0.0 -0.01999999956 0
0.400000004 -0.03333333508 0
0.3866666556 -0.03333333508 0
0.3733333348 -0.03333333508 0
0.3600000144 -0.03333333508 0
0.346666664 -0.03333333508 0
0.3333333432 -0.03333333508 0
0.3199999928 -0.03333333508 0
0.3066666724 -0.03333333508 0
0.293333322 -0.03333333508 0
0.2800000012 -0.03333333508 0
0.2666666804 -0.03333333508 0
0.25333333 -0.03333333508 0
0.2399999948 -0.03333333508 0
0.226666674 -0.03333333508 0
0.2133333384 -0.03333333508 0
0.2000000028 -0.03333333508 0
0.1866666676 -0.03333333508 0
0.173333332 -0.03333333508 0
0.1599999964 -0.03333333508 0
0.1466666608 -0.03333333508 0
0.1333333404 -0.03333333508 0
0.1199999972 -0.03333333508 0
0.1066666692 -0.03333333508 0
0.0933333336 -0.03333333508 0
0.0799999984 -0.03333333508 0
0.06666667 -0.03333333508 0
0.0533333348 -0.03333333508 0
0.03999999912 -0.03333333508 0
0.02666666732 -0.03333333508 0
0.01333333364 -0.03333333508 0
0.0 -0.03333333508 0
0.400000004 -0.0466666668 0
0.3866666556 -0.0466666668 0
0.3733333348 -0.0466666668 0
0.3600000144 -0.0466666668 0
0.346666664 -0.0466666668 0
0.3333333432 -0.0466666668 0
0.3199999928 -0.0466666668 0
0.3066666724 -0.0466666668 0
0.293333322 -0.0466666668 0
0.2800000012 -0.0466666668 0
0.2666666804 -0.0466666668 0
0.25333333 -0.0466666668 0
0.2399999948 -0.0466666668 0
0.226666674 -0.0466666668 0
0.2133333384 -0.0466666668 0
0.2000000028 -0.0466666668 0
0.1866666676 -0.0466666668 0
0.173333332 -0.0466666668 0
0.1599999964 -0.0466666668 0
0.1466666608 -0.0466666668 0
0.1333333404 -0.0466666668 0
0.1199999972 -0.0466666668 0
0.1066666692 -0.0466666668 0
0.0933333336 -0.0466666668 0
0.0799999984 -0.0466666668 0
0.06666667 -0.0466666668 0
0.0533333348 -0.0466666668 0
0.03999999912 -0.0466666668 0
0.02666666732 -0.0466666668 0
0.01333333364 -0.0466666668 0
0.0 -0.0466666668 0
0.400000004 -0.0599999988 0
0.3866666556 -0.0599999988 0
0.3733333348 -0.0599999988 0
0.3600000144 -0.0599999988 0
0.346666664 -0.0599999988 0
0.3333333432 -0.0599999988 0
0.3199999928 -0.0599999988 0
0.3066666724 -0.0599999988 0
0.293333322 -0.0599999988 0
0.2800000012 -0.0599999988 0
0.2666666804 -0.0599999988 0
0.25333333 -0.0599999988 0
0.2399999948 -0.0599999988 0
0.226666674 -0.0599999988 0
0.2133333384 -0.0599999988 0
0.2000000028 -0.0599999988 0
0.1866666676 -0.0599999988 0
0.173333332 -0.0599999988 0
0.1599999964 -0.0599999988 0
0.1466666608 -0.0599999988 0
0.1333333404 -0.0599999988 0
0.1199999972 -0.0599999988 0
0.1066666692 -0.0599999988 0
0.0933333336 -0.0599999988 0
0.0799999984 -0.0599999988 0
0.06666667 -0.0599999988 0
0.0533333348 -0.0599999988 0
0.03999999912 -0.0599999988 0
0.02666666732 -0.0599999988 0
0.01333333364 -0.0599999988 0
0.0 -0.0599999988 0
0.400000004 -0.0733333304 0
0.3866666556 -0.0733333304 0
0.3733333348 -0.0733333304 0
0.3600000144 -0.0733333304 0
0.346666664 -0.0733333304 0
0.3333333432 -0.0733333304 0
0.3199999928 -0.0733333304 0
0.3066666724 -0.0733333304 0
0.293333322 -0.0733333304 0
0.2800000012 -0.0733333304 0
0.2666666804 -0.0733333304 0
0.25333333 -0.0733333304 0
0.2399999948 -0.0733333304 0
0.226666674 -0.0733333304 0
0.2133333384 -0.0733333304 0
0.2000000028 -0.0733333304 0
0.1866666676 -0.0733333304 0
0.173333332 -0.0733333304 0
0.1599999964 -0.0733333304 0
0.1466666608 -0.0733333304 0
0.1333333404 -0.0733333304 0
0.1199999972 -0.0733333304 0
0.1066666692 -0.0733333304 0
0.0933333336 -0.0733333304 0
0.0799999984 -0.0733333304 0
0.06666667 -0.0733333304 0
0.0533333348 -0.0733333304 0
0.03999999912 -0.0733333304 0
0.02666666732 -0.0733333304 0
0.01333333364 -0.0733333304 0
0.0 -0.0733333304 0
0.400000004 -0.086666666 0
0.3866666556 -0.086666666 0
0.3733333348 -0.086666666 0
0.3600000144 -0.086666666 0
0.346666664 -0.086666666 0
0.3333333432 -0.086666666 0
0.3199999928 -0.086666666 0
0.3066666724 -0.086666666 0
0.293333322 -0.086666666 0
0.2800000012 -0.086666666 0
0.2666666804 -0.086666666 0
0.25333333 -0.086666666 0
0.2399999948 -0.086666666 0
0.226666674 -0.086666666 0
0.2133333384 -0.086666666 0
0.2000000028 -0.086666666 0
0.1866666676 -0.086666666 0
0.173333332 -0.086666666 0
0.1599999964 -0.086666666 0
0.1466666608 -0.086666666 0
0.1333333404 -0.086666666 0
0.1199999972 -0.086666666 0
0.1066666692 -0.086666666 0
0.0933333336 -0.086666666 0
0.0799999984 -0.086666666 0
0.06666667 -0.086666666 0
0.0533333348 -0.086666666 0
0.03999999912 -0.086666666 0
0.02666666732 -0.086666666 0
0.01333333364 -0.086666666 0
0.0 -0.086666666 0
0.400000004 -0.1000000016 0
0.3866666556 -0.1000000016 0
0.3733333348 -0.1000000016 0
0.3600000144 -0.1000000016 0
0.346666664 -0.1000000016 0
0.3333333432 -0.1000000016 0
0.3199999928 -0.1000000016 0
0.3066666724 -0.1000000016 0
0.293333322 -0.1000000016 0
0.2800000012 -0.1000000016 0
0.2666666804 -0.1000000016 0
0.25333333 -0.1000000016 0
0.2399999948 -0.1000000016 0
0.226666674 -0.1000000016 0
0.2133333384 -0.1000000016 0
0.2000000028 -0.1000000016 0
0.1866666676 -0.1000000016 0
0.173333332 -0.1000000016 0
0.1599999964 -0.1000000016 0
0.1466666608 -0.1000000016 0
0.1333333404 -0.1000000016 0
0.1199999972 -0.1000000016 0
0.1066666692 -0.1000000016 0
0.0933333336 -0.1000000016 0
0.0799999984 -0.1000000016 0
0.06666667 -0.1000000016 0
0.0533333348 -0.1000000016 0
0.03999999912 -0.1000000016 0
0.02666666732 -0.1000000016 0
0.01333333364 -0.1000000016 0
0.0 -0.1000000016 0
0.400000004 -0.1133333372 0
0.3866666556 -0.1133333372 0
0.3733333348 -0.1133333372 0
0.3600000144 -0.1133333372 0
0.346666664 -0.1133333372 0
0.3333333432 -0.1133333372 0
0.3199999928 -0.1133333372 0
0.3066666724 -0.1133333372 0
0.293333322 -0.1133333372 0
0.2800000012 -0.1133333372 0
0.2666666804 -0.1133333372 0
0.25333333 -0.1133333372 0
0.2399999948 -0.1133333372 0
0.226666674 -0.1133333372 0
0.2133333384 -0.1133333372 0
0.2000000028 -0.1133333372 0
0.1866666676 -0.1133333372 0
0.173333332 -0.1133333372 0
0.1599999964 -0.1133333372 0
0.1466666608 -0.1133333372 0
0.1333333404 -0.1133333372 0
0.1199999972 -0.1133333372 0
0.1066666692 -0.1133333372 0
0.0933333336 -0.1133333372 0
0.0799999984 -0.1133333372 0
0.06666667 -0.1133333372 0
0.0533333348 -0.1133333372 0
0.03999999912 -0.1133333372 0
0.02666666732 -0.1133333372 0
0.01333333364 -0.1133333372 0
0.0 -0.1133333372 0
0.400000004 -0.1266666652 0
0.3866666556 -0.1266666652 0
0.3733333348 -0.1266666652 0
[...]
POINT_DATA 961
SCALARS Temp float 1
LOOKUP_TABLE default
0.729925429819991
0.7590788897947948
0.7800004882141593
0.7952125837602604
0.8063586566531628
0.8145656778521664
0.8206359802272154
0.8251470518806521
0.8285192116800484
0.8310604317873757
0.8329990466431578
0.8345064334726053
0.835713560066642
0.83672386335042
0.8376228585968224
0.8384857622630625
0.8393844723667465
0.8403939852644361
0.8415991368364675
0.8431023145303562
0.8450328494837549
0.8475593817128235
0.850905622025831
0.8553727470079139
0.8613694647178354
0.8694546832529848
0.8803983009645098
0.8952701412567206
0.9155754180624256
0.9434986326709329
0.9825049556003038
0.770422354456269
0.7990093791373483
0.8197062655193809
0.8348350940715027
0.8459428949530376
0.854134206786131
0.8601997784659168
0.8647115848532417
0.8680870639234952
0.8706326887949554
0.8725760242328721
0.8740880853569639
0.8752997117961118
0.8763143376553776
0.877217545047683
0.8780846582737701
0.8789876981484637
0.8800017831764859
0.8812118523022773
0.8827203498892454
0.884656574961125
0.8871889643225219
0.8905407303850414
0.8950120061015021
0.901009478884882
0.9090882075577982
0.9200106940019491
0.9348314726490916
0.9550239252999433
0.9826624473625445
1.0207516349667414
2.666450508988569
2.6706975813749674
2.6825342941231205
2.693451348303838
2.702478928441873
2.7096615932503556
2.715285493215643
2.719659540024086
2.72305774035694
2.7257075096670613
2.727792835527996
2.7294616480147886
2.7308338075838208
2.732008576073147
2.7330712654822515
2.7340991829857675
2.735167159965936
2.736352974527521
2.7377429604899977
2.7394381514091823
2.741561302700667
2.7442650243739157
2.747741164648335
2.752231075642599
2.7580351582919675
2.7655167926410646
2.775086581394257
2.7871249911236617
2.8016906362990914
2.817479539148524
2.8231479223371405
4.53884910777357
4.5411668212234435
4.546855394009047
4.553963505409989
4.560703117604026
4.566546272192188
4.571407176702547
4.575367600876991
4.578562783832527
4.581135254516321
4.583217225321767
4.584925331295663
4.586360853320947
4.587612300909279
4.588758911884642
4.589874490225938
4.591031379677408
4.592304514623062
4.59377558075195
4.595537296576737
4.597697724612918
4.600384311865051
4.603746774904151
4.607957028562918
4.613201864616945
4.619659121375735
4.627435919537179
4.636416024533348
4.6458925906914565
4.653478846480877
4.656569724061819
6.405717348901555
6.406950823082276
6.4102844002143895
6.41479799719117
6.419604679766678
6.424121160925286
6.428107361070486
6.431506585345477
6.434351495196581
6.436713158390663
6.438675348133573
6.440322317648525
6.441733808858328
6.442983904291913
6.444141867447064
6.4452740251831715
6.4464461874314996
6.447726292673416
6.449187077908746
6.4509085374050406
6.452979788626596
6.455499667593163
6.458574707135073
6.462312144775604
6.466803323402271
6.472089085652261
6.478091652608311
6.484488792504746
6.490500733026423
6.494942802457057
6.49658674389366
8.269248315308262
8.26999960411739
8.272078415425739
8.275054732918179
8.278430865340793
8.281809797304433
8.284949088724208
8.287739339800826
8.290155257780546
8.292218725553983
8.293975407577802
8.295481157525423
8.296794804599228
8.297974870429158
8.299078600347652
8.300162341444906
8.301282659456177
8.30249775544061
8.303868844389665
8.305461119579556
8.307343780585397
8.309588330646934
8.312263791621541
8.31542680005133
8.319103221319807
8.323256667841571
8.327739107481126
8.332225363167872
8.336184395531312
8.338951176390934
8.339951353253172
10.13053245317747
10.131010955370298
10.13235998049096
10.134354229136543
10.136712060510519
10.139176234307364
10.141560187647242
10.143754558327814
10.14571210805431
10.147427434163026
10.148920481598232
10.150225125523798
10.151382084225903
10.152434975518513
10.153428448890454
10.154407628322176
10.155418309268569
10.156507458966619
10.1577236439659
10.159116973559573
10.160738033747513
10.162635097409865
10.164848549280592
10.167401211760382
10.17028290934526
10.173428255810753
10.176689501749753
10.179816253227637
10.182464182192042
10.184256701610623
10.184892722953352
11.990050411576792
11.99035862766109
11.991237192022576
11.992563143453314
11.994174071203432
11.995909478222458
11.99763986972133
11.999278106563969
12.000777007732392
12.002120455300833
12.003313662791877
12.004375170636647
12.005331192561712
12.006212051887106
12.007050170784625
12.007879118566679
12.008733296878729
12.009647880356559
12.01065867632503
12.011801539402928
12.013110904917243
12.014616908232766
12.016340405527856
12.018285273795005
12.020427580940403
12.022702443198822
12.024992095995957
12.027122573156113
12.028878850861515
12.030043600856427
12.03045238707231
13.848040871141212
13.848231119625797
13.84877739733758
13.849613243690781
13.850647844851729
13.851786817659512
13.852948845530541
13.854074410803442
13.855127183589296
13.856090747215363
13.856963644729056
13.85775458262216
13.85847865162111
13.859154714086731
13.859803767998745
13.860448026379892
13.861110444675242
13.861814427120972
13.862583465141178
13.863440442184249
13.864406303518326
13.865497758883867
13.86672365435312
13.86807983165788
13.869542630773894
13.871062175627575
13.872557965423185
13.873920645234634
13.875023651413121
13.875745365832815
13.875996847974843
15.70462008967564
15.704719607021497
15.70500695243258
15.705451357936132
15.706009868429572
15.706636399384038
15.70728952937347
15.707937222838163
15.708558330934961
15.709141720034928
15.709684265984073
15.710188621993685
15.710661297117822
15.711111228032294
15.711548810928788
15.711985292068505
15.712432391170983
15.712902016360351
15.713405938208812
15.713955280714655
15.714559674838041
15.71522592066734
15.715956014025316
15.716744538585239
15.717575639854239
15.718420295125188
15.719235132617104
15.719964390012759
15.72054621329791
15.720923030530802
15.721053636903651
17.559843749678265
17.559864846885006
17.559926852813714
17.56002614643591
17.56015740310933
17.560314431260732
17.56049099864463
17.560681472132252
17.56088120854293
17.5610866975527
17.56129553254321
17.561506272237725
17.561718257565403
17.561931425008577
17.562146129779922
17.562362984657046
17.562582713409935
17.56280600679935
17.563033371608526
17.563264961780565
17.563500382812897
17.563738468464244
17.563977033009515
17.56421263371146
17.564440386963916
17.564653925344466
17.56484559193657
17.565006955769135
17.565129668407426
17.565206562676178
17.565232769959604
17.66335382149074
17.66337126459305
17.66342272201612
17.66350571575844
17.663616535659994
17.6637507508961
17.663903743362418
17.664071154896888
17.664249200563585
17.664434827139548
17.664625751309032
17.664820405660254
17.665017833245066
17.665217561637398
17.665419468857237
17.665623650049717
17.66583028882298
17.666039527170565
17.666251330346892
17.666465342025596
17.66668072737582
17.66689600899291
17.667108903162074
17.667316188215782
17.667513635497222
17.66769605867443
17.66785752989627
17.667991793665074
17.668092866825898
17.668155747554827
17.668177098905765
17.766756324363804
17.76677103562961
17.766814559368836
17.766885148975586
17.766980150968305
17.76709632707998
17.767230204837904
17.767378389106042
17.76753780196617
17.767705826164395
17.767880367704226
17.76805984681022
17.768243141833693
17.76842950758129
17.76861847717566
17.768809756415976
17.769003116804424
17.769198284904757
17.769394828345405
17.76959203792564
17.76978880724056
17.769983517147633
17.770173932758087
17.770357138838005
17.77052953225416
17.770686905588754
17.77082464395277
17.770938042423232
17.771022725290134
17.771075112004453
17.771092848177084
17.870056435329374
17.870069054865063
17.87010647436872
17.870167429032147
17.870249973903455
17.870351692045734
17.870469929109575
17.870602011036215
17.87074542389903
17.870897933216188
17.87105765010581
17.87122304399403
17.871392916321884
17.871566349629823
17.871742637754807
17.87192120492967
17.87210152056148
17.87228300941236
17.872464959773144
17.872646431445844
17.872826166766565
17.873002512337347
17.873173357678617
17.873336110782855
17.873487720399364
17.873624765571364
17.873743620664573
17.873840693829184
17.87391272123966
17.873957078952067
17.87397206203687
17.973258035007614
17.973269020486267
17.973301652409837
17.973354991210257
17.97342757705352
17.973517567473724
17.973622897026228
17.97374143038146
17.973871095978488
17.974009981156524
17.97415639285594
17.97430887921745
17.974466220517993
17.974627398972814
17.97479155042052
17.97495790418322
17.975125717611427
17.975294205966566
17.975462471290324
17.975629433163093
17.975793765150314
17.975953843946186
17.976107715555603
17.97625309362161
17.976387393874624
17.976507817083807
17.976611481963754
17.97669560281655
17.97675769765485
17.97679580062108
17.976808647127122
18.07636405159743
18.07637373935253
18.076402556630804
18.076449788021367
18.076514311898592
18.076594693287603
18.07668929430426
18.07679638267963
18.07691423091827
18.077041190481008
18.077175743978945
18.077316528998622
18.07746233856214
18.0776121046135
18.077764865606113
18.07791972308562
18.07807579312296
18.078232153498877
18.078387790560512
18.078541548928552
18.078692087722416
18.07883784927761
18.078977042992374
18.079107655734973
18.079227489173263
18.07933423168923
18.07942556325188
18.07949928756355
18.079553480696557
18.07958663821986
18.07959780065883
18.17607093608989
18.176079574987643
18.1761053005917
18.176147554948386
18.176205456281842
18.176277862795878
18.176363450256375
18.17646078960567
18.176568420722806
18.176684909629582
18.17680889191641
18.176939095624522
18.17707434668101
18.177213561309195
18.177355725203107
18.17749986320308
18.177645004557846
18.17779014455939
18.177934206290264
18.17807600548396
18.17821422170249
18.178347380725896
18.17847384943825
18.178591851991044
18.178699505514444
18.178794880366226
18.178876082097617
18.178941350019592
18.178989164482903
18.179018350404093
18.179028163948747
18.26905125751736
18.26905903414378
18.269082212028202
18.2691203458
18.269172726577924
18.269238426526027
18.26931635416466
18.2694053104016
18.269504043711656
18.269611294068145
18.269725828502846
18.26984646175982
18.269972064107073
18.270101559513087
18.27023391317438
18.270368111228677
18.270503136990666
18.270637944222067
18.270771430774175
18.270902415211054
18.271029619044466
18.27115165850156
18.271267046116996
18.27137420905737
18.271471521330483
18.271557353377723
18.27163013595119
18.27168843402492
18.271731025087092
18.27175697308443
18.271765689383766
18.355272669198058
18.355279729402184
18.355300786295224
18.35533547621708
18.35538321665433
18.355443237837253
18.35551462275847
18.355596348037068
18.355687325545556
18.355786436184673
18.355892558854634
18.356004588560815
18.356121445174125
18.356242075304525
18.356365445803014
18.356490531043065
18.35661629765374
18.35674168689746
18.356865597555192
18.356986871467665
18.357104283799963
18.357216541135145
18.357322286997682
18.357420120398693
18.357508624028405
18.357586404770966
18.357652143577532
18.35770465130561
18.357742926530104
18.35776620913548
18.357774023909045
18.43470530310187
18.434711763347917
18.43473104110445
18.43476283282194
18.4348066495265
18.434861839566235
18.434927618010544
18.435003096790968
18.435087316450883
18.435179272253766
18.435277937846084
18.435382280949046
18.435491272318643
18.435603889969368
18.435719116919547
18.435835934101487
18.43595331154425
18.43607019772152
18.43618550945949
18.436298124107747
18.43640687554238
18.43651055645188
18.4366079260475
18.43669772786019
18.436778714066186
18.43684967856324
18.43690949612521
18.436957164986637
18.43699185006832
18.437012922391492
18.437019990758795
18.50732170504903
18.50732766029315
18.507345438443657
18.50737478071025
18.507415268156777
18.507466338329852
18.507527307211724
18.507597391738905
18.507675734349853
18.50776142335695
18.50785351243446
18.50795103421092
18.508053009064106
18.50815845081994
18.508266367491096
18.508375758322256
18.508485609786003
18.508594890164957
18.50870254469569
18.508807492584456
18.508908627048456
18.50900482032324
18.509094932483727
18.50917782807695
18.50925239701446
18.50931758169368
18.509372408003514
18.509416018168682
18.509447703512294
18.50946693388337
18.50947338105659
18.573096792290997
18.573102321540695
18.573118833267728
18.573146102362923
18.573183762858037
18.573231320283803
18.573288168359007
18.573353606065655
18.573426856940966
18.57350708518269
18.573593411904508
18.57368492698787
18.573780697556927
18.573879774585834
18.5739811957318
18.574083985383773
18.574187154195904
18.574289697535974
18.5743905944686
18.57448880825531
18.57458328919352
18.574672981343305
18.574756831811253
18.57483380610727
18.574902906123555
18.57496319255995
18.57501380975857
18.575054011374178
18.575083185581708
18.575100877402654
18.57510680628095
18.632008217887602
18.632013388188113
18.632028831820985
18.63205434923793
18.632089614852763
18.63213418639454
18.632187517851463
18.632248972645204
18.632317839084166
18.63239334330942
18.632474663074124
18.63256093819441
18.632651278660543
18.632744771786104
18.632840486492842
18.632937475516055
18.633034777501322
18.633131418265776
18.63322641255312
18.633318767000937
18.633407484885012
18.63349157389247
18.63357005549259
18.633641979064382
18.633706437473222
18.63376258583116
18.633809661671158
18.633847005322913
18.63387407963583
18.633890487216462
18.633895983870158
18.6840356102504
18.684040479596455
18.684055027033263
18.684079072520984
18.684112321421434
18.684154371725686
18.68420472432123
18.68426279336502
18.68432791893304
18.684399377636296
18.68447639451972
18.684558152408137
18.684643799665565
18.684732457651602
18.684823226000642
18.684915186357905
18.685007406307165
18.685098942648967
18.68518884512651
18.685276161112373
18.68535994162548
18.68543924970647
18.685513169670827
18.685580820130752
18.685641367630634
18.685694042571253
18.68573815587385
18.685773115445066
18.685798441903735
18.68581378215113
18.685818919857002
18.72916153078307
18.729166150275027
18.729179953236695
18.72920277453997
18.729234343290774
18.729274288548794
18.729322147678616
18.729377374711344
18.729439350950503
18.729507393877974
18.72958076763664
18.729658691518914
18.729740347411987
18.729824887413592
18.729911439782445
18.72999911374659
18.730087004720012
18.73017419900542
18.730259778899825
18.730342828559312
18.730422440846652
18.730497726023618
18.730567820788977
18.730631900349152
18.73068919051242
18.73073898143734
18.730780641664506
18.730813631696424
18.730837516809896
18.73085197797693
18.730856820229643
18.767370528577924
18.76737494405811
18.767388138848204
18.76740995916414
18.76744015223405
18.767478370950734
18.767524180854423
18.767577067056624
18.767636443364104
18.767701659940375
18.767772012732586
18.767846751305846
18.767925086022487
18.768006195727114
18.768089234142362
18.768173335416844
18.768257620234174
18.768341201505496
18.768423190424283
18.768502703122806
18.76857886804744
18.768650834791675
18.76871778288803
18.76877893309024
18.76883355826559
18.768880995493983
18.768920658141514
18.768952047323882
18.768974762601104
18.76898851098848
18.76899311380112
18.79864986254416
18.79865411585926
18.79866682704627
18.798687850824077
18.798716948042454
18.798753789585852
18.79879796238928
18.798848975345603
18.798906267369315
18.798969214164902
18.79903713688075
18.799109309454817
18.799184965579133
18.79926330640251
18.799343507215106
18.799424723496706
18.79950609763088
18.799586765271137
18.79966586203497
18.79974253068039
18.79981592880524
18.799885237719955
18.799949671003017
18.800008485153946
18.80006098957135
18.800106557425053
18.800144636295787
18.800174758106664
18.800196548297013
18.800209733470755
18.800214147161324
18.822989102011068
18.822993232016504
18.823005575371173
18.823025992964823
18.82305425555545
18.82309004716047
18.8231329704062
18.823182551735055
18.823238248730945
18.823299456265246
18.823365514602173
18.823435716392552
18.823509313473547
18.823585524564137
18.823663542130745
18.823742538764066
18.823821674291388
18.82390010258722
18.82397697868501
18.824051466284374
18.824122745641553
18.824190022430926
18.824252536098918
18.824309570039347
18.824360460902387
18.824404608584583
18.82444148585065
18.82447064718724
18.824491736914037
18.8245044958845
18.82450876650328
18.840380016600214
18.840384059983215
18.84039614489189
18.84041613640292
18.840443812008587
18.84047886467632
18.84052090776436
18.84056947977384
18.840624051189845
18.840684030219187
18.840748770530517
18.840817578011475
18.84088971745233
18.84096442022574
18.841040891260125
18.841118315620605
18.84119586586874
18.841272709150566
18.841348014566275
18.841420960876583
18.841490744499318
18.8415565883424
18.84161775000579
18.841673531622515
18.84172328871192
18.84176643957638
18.841802474245156
18.84183096261563
18.841851561864704
18.84186402252849
18.841868193030905
18.85081689801925
18.850820889996044
18.850832821509957
18.850852560065842
18.85087988706615
18.850914500684247
18.850956020535953
18.851003992175297
18.851057893661704
18.851117141066315
18.851181096003526
18.85124907225161
18.851320342367604
18.85139414535355
18.85146969368644
18.851546180009723
18.851622784627477
18.851698682743375
18.851773051969655
18.85184508013892
18.85191397335274
18.85197896479005
18.852039322814857
18.852094360619752
18.85214344481438
18.852186004480384
18.852221539727392
18.852249629428453
18.852269938234205
18.85228222230095
18.85228633354311
18.854296232683282
18.854300207617847
18.854312088274995
18.854331742955413
18.85435895434383
18.85439342232238
18.8544347685633
18.854482540942076
18.854536220015774
18.854595224454684
18.854658918505972
18.854726618569508
18.854797599790174
18.854871103718963
18.854946345360343
18.855022519898764
18.855098810235344
18.85517439427463
18.855248452477525
18.85532017570584
18.855388773286514
18.855453481810393
18.855513573208345
18.855568364329244
18.855617225441616
18.85565958917711
18.855694958960154
18.855722916611676
18.855743129234487
18.85575535482759
18.855759446449262
